
     Program PWSCF v.5.4.0 starts on 22Sep2019 at 19: 5:26 

     This program is part of the open-source Quantum ESPRESSO suite
     for quantum simulation of materials; please cite
         "P. Giannozzi et al., J. Phys.:Condens. Matter 21 395502 (2009);
          URL http://www.quantum-espresso.org", 
     in publications or presentations arising from this work. More details at
     http://www.quantum-espresso.org/quote

           HOST :    @host@
           ARCH :    
             CC :    cc
            CPP :    cpp
            F90 :    mpif90
            F77 :    gfortran
         DFLAGS :    -D__GFORTRAN -D__STD_F95 -D__FFTW3 -D__MPI -D__PARA
      BLAS LIBS :    -lopenblas
    LAPACK LIBS :    -lopenblas
       FFT LIBS :    -lfftw3
      MASS LIBS :    

     Parallel version (MPI), running on    28 processors
     R & G space division:  proc/nbgrp/npool/nimage =      28
     Waiting for input...
     Reading input from standard input
Warning: card &IONS ignored
Warning: card / ignored
Warning: card &CELL ignored
Warning: card / ignored

     Current dimensions of program PWSCF are:
     Max number of different atomic species (ntypx) = 10
     Max number of k-points (npk) =  40000
     Max angular momentum in pseudopotentials (lmaxx) =  3

     IMPORTANT: XC functional enforced from input :
     Exchange-correlation      = PBE ( 1  4  3  4 0 0)
     Any further DFT definition will be discarded
     Please, verify this is what you really want


     gamma-point specific algorithms are used

     Subspace diagonalization in iterative solution of the eigenvalue problem:
     a serial algorithm will be used


     Parallelization info
     --------------------
     sticks:   dense  smooth     PW     G-vecs:    dense   smooth      PW
     Min         445     445    110                37558    37558    4694
     Max         448     448    112                37564    37564    4708
     Sum       12517   12517   3125              1051747  1051747  131683
     Tot        6259    6259   1563



     bravais-lattice index     =            1
     lattice parameter (alat)  =      18.8973  a.u.
     unit-cell volume          =    6748.3346 (a.u.)^3
     number of atoms/cell      =            5
     number of atomic types    =            2
     number of electrons       =         8.00
     number of Kohn-Sham states=            4
     kinetic-energy cutoff     =     110.0000  Ry
     charge density cutoff     =     440.0000  Ry
     convergence threshold     =      1.0E-06
     mixing beta               =       0.5000
     number of iterations used =            8  plain     mixing
     Exchange-correlation      = PBE ( 1  4  3  4 0 0)

     celldm(1)=  18.897261  celldm(2)=   0.000000  celldm(3)=   0.000000
     celldm(4)=   0.000000  celldm(5)=   0.000000  celldm(6)=   0.000000

     crystal axes: (cart. coord. in units of alat)
               a(1) = (   1.000000   0.000000   0.000000 )  
               a(2) = (   0.000000   1.000000   0.000000 )  
               a(3) = (   0.000000   0.000000   1.000000 )  

     reciprocal axes: (cart. coord. in units 2 pi/alat)
               b(1) = (  1.000000  0.000000  0.000000 )  
               b(2) = (  0.000000  1.000000  0.000000 )  
               b(3) = (  0.000000  0.000000  1.000000 )  


     PseudoPot. # 1 for  H read from file:
     ../pseudo/H.tm.pbe.UPF
     MD5 check sum: 4b614d66af87240b7a5107bfa527a767
     Pseudo is Norm-conserving, Zval =  1.0
     Generated using "atomic" code by A. Dal Corso  v.5.2.0
     Using radial grid of  929 points,  0 beta functions with: 

     PseudoPot. # 2 for  C read from file:
     ../pseudo/C.tm.pbe.UPF
     MD5 check sum: a4f27fcb9b24331b00ace8e732a7e062
     Pseudo is Norm-conserving, Zval =  4.0
     Generated using "atomic" code by A. Dal Corso  v.5.2.0
     Using radial grid of 1073 points,  1 beta functions with: 
                l(1) =   1

     atomic species   valence    mass     pseudopotential
        H              1.00     1.00000      H( 1.00)
        C              4.00     1.00000      C( 1.00)

     No symmetry found



   Cartesian axes

     site n.     atom                  positions (alat units)
         1           H   tau(   1) = (   0.5411110   0.4133280   0.3562290  )
         2           H   tau(   2) = (   0.3988400   0.4841160   0.4392140  )
         3           H   tau(   3) = (   0.5600440   0.5711630   0.4382620  )
         4           H   tau(   4) = (   0.5423850   0.4182100   0.5312360  )
         5           C   tau(   5) = (   0.5092370   0.4723900   0.4421890  )

     number of k points=     1
                       cart. coord. in units 2pi/alat
        k(    1) = (   0.0000000   0.0000000   0.0000000), wk =   2.0000000

     Dense  grid:   525874 G-vectors     FFT dimensions: ( 128, 128, 128)

     Largest allocated arrays     est. size (Mb)     dimensions
        Kohn-Sham Wavefunctions         0.14 Mb     (    2354,    4)
        NL pseudopotentials             0.11 Mb     (    2354,    3)
        Each V/rho on FFT grid          1.25 Mb     (   81920)
        Each G-vector array             0.14 Mb     (   18782)
        G-vector shells                 0.02 Mb     (    2785)
     Largest temporary arrays     est. size (Mb)     dimensions
        Auxiliary wavefunctions         0.29 Mb     (    2354,   16)
        Each subspace H/S matrix        0.00 Mb     (      16,   16)
        Each <psi_i|beta_j> matrix      0.00 Mb     (       3,    4)
        Arrays for rho mixing          10.00 Mb     (   81920,    8)

     Initial potential from superposition of free atoms
     Check: negative starting charge=   -0.000384

     starting charge    7.99992, renormalised to    8.00000

     negative rho (up, down):  3.835E-04 0.000E+00
     Starting wfc are    8 randomized atomic wfcs

     total cpu time spent up to now is        2.9 secs

     per-process dynamical memory:   430.8 Mb

     Self-consistent Calculation

     iteration #  1     ecut=   110.00 Ry     beta=0.50
     Davidson diagonalization with overlap
     ethr =  1.00E-02,  avg # of iterations =  2.0

     negative rho (up, down):  1.812E-04 0.000E+00

     total cpu time spent up to now is        3.5 secs

     total energy              =     -16.02224508 Ry
     Harris-Foulkes estimate   =     -16.40518548 Ry
     estimated scf accuracy    <       0.68079799 Ry

     iteration #  2     ecut=   110.00 Ry     beta=0.50
     Davidson diagonalization with overlap
     ethr =  8.51E-03,  avg # of iterations =  2.0

     negative rho (up, down):  9.515E-05 0.000E+00

     total cpu time spent up to now is        3.9 secs

     total energy              =     -16.15329611 Ry
     Harris-Foulkes estimate   =     -16.17260196 Ry
     estimated scf accuracy    <       0.05014172 Ry

     iteration #  3     ecut=   110.00 Ry     beta=0.50
     Davidson diagonalization with overlap
     ethr =  6.27E-04,  avg # of iterations =  1.0

     negative rho (up, down):  5.319E-06 0.000E+00

     total cpu time spent up to now is        4.4 secs

     total energy              =     -16.15163621 Ry
     Harris-Foulkes estimate   =     -16.15709339 Ry
     estimated scf accuracy    <       0.01146693 Ry

     iteration #  4     ecut=   110.00 Ry     beta=0.50
     Davidson diagonalization with overlap
     ethr =  1.43E-04,  avg # of iterations =  2.0

     negative rho (up, down):  5.156E-06 0.000E+00

     total cpu time spent up to now is        4.8 secs

     total energy              =     -16.15356518 Ry
     Harris-Foulkes estimate   =     -16.15585366 Ry
     estimated scf accuracy    <       0.00526321 Ry

     iteration #  5     ecut=   110.00 Ry     beta=0.50
     Davidson diagonalization with overlap
     ethr =  6.58E-05,  avg # of iterations =  1.0

     negative rho (up, down):  1.304E-06 0.000E+00

     total cpu time spent up to now is        5.3 secs

     total energy              =     -16.15380392 Ry
     Harris-Foulkes estimate   =     -16.15401703 Ry
     estimated scf accuracy    <       0.00038720 Ry

     iteration #  6     ecut=   110.00 Ry     beta=0.50
     Davidson diagonalization with overlap
     ethr =  4.84E-06,  avg # of iterations =  3.0

     total cpu time spent up to now is        5.8 secs

     total energy              =     -16.15403612 Ry
     Harris-Foulkes estimate   =     -16.15409144 Ry
     estimated scf accuracy    <       0.00012534 Ry

     iteration #  7     ecut=   110.00 Ry     beta=0.50
     Davidson diagonalization with overlap
     ethr =  1.57E-06,  avg # of iterations =  2.0

     total cpu time spent up to now is        6.3 secs

     total energy              =     -16.15405411 Ry
     Harris-Foulkes estimate   =     -16.15405475 Ry
     estimated scf accuracy    <       0.00000329 Ry

     iteration #  8     ecut=   110.00 Ry     beta=0.50
     Davidson diagonalization with overlap
     ethr =  4.11E-08,  avg # of iterations =  1.0

     total cpu time spent up to now is        6.8 secs

     total energy              =     -16.15405369 Ry
     Harris-Foulkes estimate   =     -16.15405422 Ry
     estimated scf accuracy    <       0.00000199 Ry

     iteration #  9     ecut=   110.00 Ry     beta=0.50
     Davidson diagonalization with overlap
     ethr =  2.49E-08,  avg # of iterations =  1.0

     total cpu time spent up to now is        7.1 secs

     End of self-consistent calculation

          k = 0.0000 0.0000 0.0000 ( 65842 PWs)   bands (ev):

   -16.7899  -9.3389  -9.2178  -9.1268

     highest occupied level (ev):    -9.1268

!    total energy              =     -16.15405335 Ry
     Harris-Foulkes estimate   =     -16.15405379 Ry
     estimated scf accuracy    <       0.00000060 Ry

     The total energy is the sum of the following terms:

     one-electron contribution =     -40.06378883 Ry
     hartree contribution      =      20.85535079 Ry
     xc contribution           =      -6.32750129 Ry
     ewald contribution        =       9.38188599 Ry

     convergence has been achieved in   9 iterations

     Forces acting on atoms (Ry/au):

     atom    1 type  1   force =     0.00035630   -0.00188605   -0.01092166
     atom    2 type  1   force =     0.01933989   -0.00053689    0.00546482
     atom    3 type  1   force =    -0.01226674   -0.01450955    0.00154733
     atom    4 type  1   force =    -0.00636080    0.00230863    0.00803558
     atom    5 type  2   force =    -0.00106864    0.01462385   -0.00412607

     Total force =     0.035113     Total SCF correction =     0.000463


     entering subroutine stress ...

          total   stress  (Ry/bohr**3)                   (kbar)     P=   -0.68
  -0.00001030  -0.00000185  -0.00000170         -1.51     -0.27     -0.25
  -0.00000185  -0.00000608   0.00000119         -0.27     -0.89      0.18
  -0.00000170   0.00000119   0.00000257         -0.25      0.18      0.38


     init_run     :      2.55s CPU      2.56s WALL (       1 calls)
     electrons    :      4.10s CPU      4.20s WALL (       1 calls)
     forces       :      0.91s CPU      0.91s WALL (       1 calls)
     stress       :      1.10s CPU      1.10s WALL (       1 calls)

     Called by init_run:
     wfcinit      :      0.20s CPU      0.20s WALL (       1 calls)
     potinit      :      1.03s CPU      1.04s WALL (       1 calls)

     Called by electrons:
     c_bands      :      1.62s CPU      1.63s WALL (       9 calls)
     sum_band     :      0.47s CPU      0.51s WALL (       9 calls)
     v_of_rho     :      1.93s CPU      1.99s WALL (      10 calls)
     mix_rho      :      0.25s CPU      0.25s WALL (       9 calls)

     Called by c_bands:
     init_us_2    :      0.04s CPU      0.05s WALL (      19 calls)
     regterg      :      1.59s CPU      1.59s WALL (       9 calls)

     Called by sum_band:

     Called by *egterg:
     h_psi        :      1.72s CPU      1.73s WALL (      25 calls)
     g_psi        :      0.01s CPU      0.01s WALL (      15 calls)
     rdiaghg      :      0.00s CPU      0.00s WALL (      24 calls)

     Called by h_psi:
     add_vuspsi   :      0.00s CPU      0.00s WALL (      25 calls)

     General routines
     calbec       :      0.48s CPU      0.48s WALL (      30 calls)
     fft          :      1.82s CPU      1.90s WALL (     117 calls)
     fftw         :      1.28s CPU      1.29s WALL (     122 calls)

     Parallel routines
     fft_scatter  :      1.29s CPU      1.35s WALL (     239 calls)

     PWSCF        :     9.01s CPU         9.17s WALL


   This run was terminated on:  19: 5:35  22Sep2019            

=------------------------------------------------------------------------------=
   JOB DONE.
=------------------------------------------------------------------------------=
