LAMMPS data file via write_data, version 23 Jun 2022, timestep = 100000

1296 atoms
2 atom types

0.9492202546513404 19.10928220341379 xlo xhi
0.9492202546513404 19.10928220341379 ylo yhi
0.2959221355782713 18.455984084340315 zlo zhi

Masses

1 15.999 # O
2 1.00784 # H

Atoms # atomic

13 1 2.215876849113945 2.720331087114493 1.5733821111790478 0 0 0
34 1 3.8246237394847715 3.887113979831385 3.5546022640965886 0 0 0
1151 2 1.3394522807852223 18.29926657392437 0.3210974142610791 0 -1 1
816 2 3.8672803869788894 3.216726327330389 4.180615062664123 1 1 0
804 2 3.041345801264344 4.435822849232539 3.6714853128490175 1 0 0
37 1 5.086504623406592 2.1410042644092266 1.6008189551446246 0 0 0
40 1 2.624611290725433 5.432089873132341 1.9036471465116895 0 0 0
483 2 2.3781534996547964 3.163713077709146 2.398926847005579 0 0 0
43 1 2.087125000383546 2.477051115037286 5.0963331805337155 0 0 0
222 2 4.65324612237897 3.25796507569416 17.73502896587854 1 0 -2
732 2 2.0442700888644048 5.00587862709696 2.512602210463079 0 1 1
1259 2 5.76454219401963 4.398052301758568 1.7548954494219275 0 1 1
963 2 3.203524737455094 1.614570463262806 4.11927479410911 0 -1 1
46 1 5.976371179494469 5.5380528367891 4.396384152473934 0 0 0
462 2 3.3334353684038027 4.681686704970581 2.004144357306358 0 0 0
308 2 4.542535737500806 0.9819312266096673 3.7350500455419935 0 1 0
942 2 1.7813262013653874 1.8788896111032474 1.896736795443413 1 0 0
25 1 3.527805993622738 1.3699360678998977 17.807849880739234 0 0 -1
786 2 1.198164352319046 18.364971748228076 4.011288667832342 0 0 0
4 1 3.9362558899388236 3.9412399378874166 17.95168740767489 0 0 -1
495 2 3.907389860928582 1.9250149747264444 0.4647855352327218 0 0 0
58 1 7.007715605527484 3.664706488878339 3.0634802217581565 0 0 0
61 1 8.798576829825446 2.0471153624305334 2.1059778671806315 0 0 0
686 2 9.322257163946823 2.4259750875281694 2.758628211263696 0 1 0
486 2 9.433895293953112 1.5907528978050596 1.5856523461269818 -1 0 0
330 2 6.842404657301286 4.4674543292957205 3.578555287959728 -1 1 -1
82 1 10.07192617092076 3.810032586445931 3.4409113800245725 0 0 0
88 1 8.69164927879326 5.087619025187107 1.8307159700766484 0 0 0
461 2 7.798773152607498 5.533186087827584 1.9017553254231607 0 0 0
1118 2 8.622012354843282 4.218069795331072 2.2752404954621093 0 1 0
959 2 4.226456303170071 2.0796757453140304 2.05130386460642 1 0 1
284 2 8.057142599219727 2.052767875596507 5.175577355094294 0 0 0
215 2 9.147041155315462 3.8019641195044502 3.7365577242065897 0 1 0
569 2 7.138964032701541 2.835236746068629 3.721241965520833 1 0 1
984 2 7.719347248782916 1.2671692752669605 2.667910615437155 0 0 1
185 2 6.51447561578912 18.509084651173033 3.6723938683740887 -1 -1 -1
73 1 10.196141373015456 18.887679968187943 18.327714950692233 0 -1 -1
1250 2 9.370062171291476 4.990651785447454 5.4917684926789345 0 1 0
558 2 7.886033877293636 4.27596092519267 0.6536758156171183 0 1 0
795 2 11.450993442726826 2.8583819056388227 17.11039277254556 -1 1 0
1143 2 6.651120875242947 18.519205117657357 17.788760869706792 1 0 -1
878 2 10.621998620538394 3.181630726270506 3.9902245548515713 -1 0 1
60 2 12.72054579356055 7.6918049120443355 2.684148020476712 0 0 0
85 1 11.390339005299856 1.7781535616221205 1.8369133953119765 0 0 0
106 1 12.524644816500894 3.512427363357526 3.286354826246779 0 0 0
109 1 14.848635819169722 2.316812728986087 1.9780990688106823 0 0 0
581 2 11.393152480453937 1.3250762482900234 4.017614146415561 0 1 1
806 2 9.365900538462318 18.60675294747459 3.087345376288743 0 0 0
1235 2 13.043258326906475 2.9978581142065397 3.9329958136068015 0 1 1
938 2 12.634094134214587 2.830323425889886 0.30271369274626303 0 -1 1
64 1 11.54860742924974 5.094440580520648 1.877488701833644 0 0 0
1260 2 12.581948512682327 1.1642111954821017 0.9627550908955472 0 1 1
386 2 11.64014442378305 5.743325416491497 1.1728857151485663 0 1 0
576 2 10.78495486564031 5.654766289906548 2.3530602476909195 0 0 1
773 2 10.864439677171093 4.802710391890684 4.311161775404035 1 1 0
136 1 14.314331338622065 5.351274529085295 1.8158330013156838 0 0 0
828 2 12.749282583892587 18.05069411087304 2.881763412430316 0 0 0
489 2 13.969562550665533 18.035777224815867 1.2209850262629889 0 -1 0
97 1 13.204598147650621 19.055120739827892 0.43575657489920855 0 -1 0
362 2 11.867224908187751 2.690458412001592 2.329179164201445 0 0 0
139 1 14.348820112622203 2.344593417656843 4.640412826135725 0 0 0
450 2 12.930918900180098 4.1858203500374955 2.789667744603408 -1 0 0
411 2 1.694392377322687 2.170105785455365 4.1523391644050065 1 1 0
66 2 18.620144146309713 4.40056100547878 4.160084467879972 -1 0 0
542 2 18.657021693231002 3.741660402163099 2.987240477096227 0 0 0
179 2 14.032001164377249 2.1270361464316343 1.428923116293066 0 0 0
560 2 16.312507173153634 4.95983083006744 2.720587525821938 0 0 0
10 1 1.226813716265657 4.182923113475363 3.504675677920791 0 0 0
1160 2 15.79386046163346 4.7348037025902325 1.0413823239462905 0 0 1
130 1 16.159280829014016 4.367768393997805 3.4064183901218477 0 0 0
133 1 17.474345700934514 2.6743761075696546 1.9248231864498702 0 0 0
264 2 16.316299353291726 1.2481055307318636 2.5773984908602885 0 0 0
1248 2 15.956715599839518 4.761111402034727 4.152100743303401 0 1 1
854 2 17.366324750378332 3.4097433172009044 4.421135960721284 0 1 1
593 2 17.874566810419587 1.940267350851975 3.8914920216227236 0 0 1
121 1 16.238906967902786 1.1060831719263626 18.374690491884124 0 0 -1
1296 2 16.540709307521638 2.8346211759995565 1.94918865988889 0 1 1
597 2 13.77412416682252 5.625400886223585 1.107488732918358 -1 1 0
112 1 18.072721615316258 5.566787881793589 1.3435038018465484 0 0 0
1044 2 18.324309196711127 5.804774647309166 2.3158017629934133 0 1 1
20 2 18.685451328113064 4.887881448239639 0.8727009365752272 0 0 0
118 1 14.253085310196996 5.13757608407797 4.613543776045076 0 0 0
103 1 15.905215942808795 18.960082434084043 3.2722112425112577 0 -1 0
151 1 4.397481367592519 7.0645455631802525 3.2355403826655844 0 0 0
157 1 2.4544661931199054 8.763470191905208 2.15173545287498 0 0 0
452 2 5.442766400852804 5.566773823525124 3.6267015653419366 0 0 0
626 2 3.659870348060484 6.640770288296307 2.6787442243370196 0 0 0
104 2 1.8429747754796497 8.159206999649241 1.6209565175854843 1 -1 0
1035 2 1.40754774904359 9.214732253358056 18.143096015661648 0 0 -1
951 2 4.7016499767754745 10.675008443682215 4.105207184326068 0 -1 1
555 2 4.741346336813888 9.054111366955867 0.6241703372531064 0 0 1
178 1 4.415286557742716 10.239158808006202 3.189605803214083 0 0 0
148 1 4.110979880377236 9.775559775441872 18.42722325145143 0 0 -1
187 1 2.8685555337909774 8.303823717010554 4.665456267785368 0 0 0
888 2 4.3954785226831445 6.679938454240667 4.1694381758323535 0 0 0
1130 2 3.7325913257044157 10.600708513217995 2.5790628607012045 1 0 1
584 2 2.1098401741495723 7.700032337230107 5.011266612487337 0 0 0
204 2 2.1043563682156057 9.244377515393516 2.8707633846481553 0 0 0
444 2 4.931786262403028 7.078112242178581 18.275541929905046 0 -1 -1
287 2 3.693160471967847 6.707969440291698 17.57943863888574 0 0 0
169 1 3.972813134395189 7.107366178050878 18.39283268344105 0 0 -1
1157 2 18.779494686741092 6.695129263800143 0.9332658406275598 -1 1 0
368 2 3.5225578411013676 9.692843629849103 1.0990270414045735 0 0 0
16 1 5.5949018856716926 5.196736133456248 1.4956006490945013 0 0 0
800 2 5.1294127917759145 5.2007267668520845 0.6132268795949531 0 0 0
618 2 7.121877521564685 7.201040856897077 3.6368414145814545 0 0 0
515 2 6.4340942009001045 7.816517247146895 1.877353329735994 0 0 1
181 1 5.672392549223131 8.245559661886368 1.4352730554647535 0 0 0
675 2 7.614985781012872 10.37001727432458 2.748365703793878 1 0 1
223 1 7.15019463482448 6.798975245580481 2.8029856002335403 0 0 0
205 1 8.580522369558002 8.494428755303097 1.9144379617902263 0 0 0
1020 2 9.067090030057507 8.834027367904863 2.7236731408191694 -1 0 1
621 2 7.998606623998172 7.701971074245512 1.9622364032939408 0 0 1
1085 2 6.364251639338708 6.248421983234992 2.4779658290402926 0 1 0
134 2 4.984393961684001 8.087789826863174 2.2972304123537395 0 0 1
163 1 5.99705870418599 8.29634326486957 5.008880455272811 0 0 0
235 1 8.615952765116049 8.316215517881416 4.7692099014004485 0 0 0
726 2 6.448669663754612 8.587356110462842 4.140135540622914 0 0 0
417 2 9.049379718498658 8.037666996328422 3.812155715525028 1 0 0
491 2 9.376259359572163 6.103961189785706 3.0442116700912556 0 0 0
202 1 7.055471150348049 10.005714801613847 3.563358895314843 0 0 0
226 1 10.251166456725292 9.838268026341572 3.3321835984118464 0 0 0
1140 2 7.213474337612376 7.5680313044663805 18.230436467558818 0 0 0
1029 2 7.648863616988165 9.234747577800947 0.9611876516610284 -1 0 1
199 1 10.07773061733647 6.814847966347699 3.00383813130175 0 0 0
213 2 10.665471322237938 8.054660882982688 1.843626608328355 1 0 0
1109 2 12.212717785544452 4.8668639621859215 4.722813686493641 1 1 0
1004 2 11.681506700165224 8.869914085258703 2.3725637672970565 0 0 1
271 1 13.131152206990809 7.039109851450643 3.301203043536076 0 0 0
229 1 11.513732987270988 8.322480784329652 1.6397886906944532 0 0 0
183 2 12.838576954085934 6.33436550168845 2.8304172892388495 -1 0 0
1119 2 13.88943502214605 9.964118014579675 2.9650541372021446 0 0 1
283 1 14.082166254228799 8.440844038490798 5.108617495159244 0 0 0
918 2 11.690222345046504 6.934141784958499 18.13561077751382 -1 0 0
253 1 14.587679825621679 8.596883695984532 1.2793770703328267 0 0 0
206 2 10.574663339063052 6.719445441867669 3.933555434974432 0 1 0
419 2 12.980267511359378 10.595683427056377 3.927830238156448 0 0 0
629 2 15.152990740692218 7.972083863593002 0.8527076875832542 0 0 1
422 2 14.600980488459376 9.084398740314 4.37553972846163 0 1 0
1227 2 9.652507689105528 10.459556494380385 2.894657518628262 0 1 1
250 1 12.983985355554427 9.919598881200505 3.2685523578305413 0 0 0
1007 2 15.394395503094024 7.657930475392106 5.578005935180066 0 0 1
320 2 10.119290056293876 6.536160825165759 17.431174846933096 0 0 0
671 2 13.85224405681741 7.970961642947335 1.3723044129875603 -1 1 1
268 1 13.210945725216746 10.324661960209047 0.33811595573773096 0 0 0
857 2 14.6866418652503 6.176984205784377 2.1499200871893525 0 1 0
354 2 18.362105990740947 6.224414066892107 3.7795889814760892 -1 1 0
154 1 18.721225357246855 9.84889628497551 3.407990409578446 -1 0 0
175 1 18.94848713348807 6.803247843859835 3.2150968445047683 -1 0 0
611 2 18.73773738123053 9.305848811504267 4.25818754419454 -1 0 0
87 2 1.6615916228667285 6.567493974271316 2.7261387901589313 0 -1 0
98 2 15.289068234338718 6.370493249492393 3.77269204288116 0 0 0
247 1 15.797713572659164 7.124716296718575 3.458094849226465 0 0 0
277 1 17.33249551254642 8.376362085438396 2.0647369039777077 0 0 0
1064 2 15.398047880408894 7.836166761895901 2.9867845770925574 1 0 1
1200 2 17.10807035520326 8.617744659053288 1.1031870094905538 -1 0 1
384 2 17.221841155674888 7.472117662801944 2.15968281406335 0 0 0
231 2 17.31261936464264 8.35230662860474 4.236482525668837 0 0 1
244 1 16.32976422225387 9.94363015180464 18.10078466146473 0 0 -1
909 2 17.494976489097002 8.598931613459996 5.786890277500693 0 -1 1
259 1 17.38071775984458 7.919576375388848 5.062775575532341 0 0 0
1025 2 15.711982565415777 6.338953041468342 18.097511844785522 0 0 0
347 2 16.899107015612813 6.722672072261861 0.592932223751502 0 0 0
131 2 5.352714127895989 11.427891090038637 2.279180863318545 1 -1 0
184 1 2.6189793910602015 11.118170489798892 1.8897163571355096 0 0 0
295 1 3.842032265422986 12.904206029546406 3.04056403897122 0 0 0
1041 2 4.113740518943493 13.61625984638235 3.6904081083969156 0 0 1
986 2 1.8151054916462226 10.87284678742085 1.2964569808724375 1 0 0
405 2 2.6985003479722893 11.5873508056044 4.097639866268476 1 0 0
166 1 2.456939076487381 10.982261966502143 4.78385754607191 0 0 0
325 1 5.335705253655154 14.456429813420188 1.57055254137862 0 0 0
459 2 4.483237368085676 13.353684079735688 2.460922720721018 0 -1 1
290 2 1.5019381893603725 13.57283669817647 17.961944997322668 0 0 0
989 2 2.9542265483806784 11.998782893648121 1.6041261339070814 0 0 0
524 2 2.539870246692372 10.142796521724764 4.236359407438663 0 -1 0
331 1 2.7391843735437416 14.447890719324453 4.961869121944822 0 0 0
323 2 3.0348861434645493 13.531823036031644 17.66349912701417 0 0 -1
319 1 0.9872646539823418 12.468427078527897 3.147241609700715 0 0 0
357 2 1.7652896637470818 12.46707058939922 2.583213717580582 1 0 1
699 2 18.75513948785833 11.510785098709649 3.3051383626463773 -1 -1 1
307 1 5.199656611682092 14.164997948095282 4.4499978469682775 0 0 0
51 2 4.663149063687403 13.955010593881878 5.202253125321088 0 0 0
603 2 1.267465299947343 15.588082955295597 3.3126983873090436 0 -1 0
527 2 5.7723034300116005 11.952374311696977 4.037991261541368 1 0 0
107 2 4.186986555839716 12.74374862470537 18.215250704367193 1 -1 -1
393 2 9.347930187168076 11.259935234067415 4.501709712053578 1 1 0
228 2 7.6473657764502425 13.57258540887565 0.8618283605613801 0 0 1
549 2 6.2831754967146685 9.795703882048302 0.7526075888905077 1 -1 1
160 1 5.549691915511173 11.516762694202106 1.254747065862801 0 0 0
1055 2 6.387165539682022 11.948682259063167 1.0403807381126788 0 0 1
44 2 6.153375074313999 10.354978224527859 3.4716817455899482 0 0 0
232 1 8.491130392286255 11.202265416357928 1.9931796156845651 0 0 0
367 1 6.762963975558482 12.897879904503563 2.828250221128483 0 0 0
926 2 7.582778546633446 13.164072866457579 3.0062198285416484 0 -1 1
539 2 6.355215116873507 13.545936863649628 2.3738277908393304 1 -1 0
343 1 10.05431820406083 13.205782311157348 3.2929962782076827 0 0 0
797 2 9.084066808966126 13.343574733102093 5.794378163177305 0 1 0
1103 2 8.800961054674943 11.942742407929122 2.568922500948479 0 1 2
1131 2 10.65754588965069 10.416979338524403 4.090223545303399 0 0 0
1197 2 9.20945063890887 13.577470789525433 3.6112259904720707 0 0 1
113 2 9.03443846141916 14.858308952958527 2.554492218703032 1 0 0
363 2 10.443480921618885 13.530206418908518 2.5194611960519118 0 0 0
379 1 8.25237884182263 14.529881470196031 4.5708319484086175 0 0 0
170 2 7.424448180813883 14.156039872257637 5.087231839794834 0 0 0
337 1 7.479963628527138 12.7933782872817 0.30606598924429096 0 0 0
361 1 10.171091271441872 13.467515904663863 0.5835006191625021 0 0 0
1098 2 9.227236824233458 16.234036266725866 17.608538870287653 0 0 -1
26 2 10.798774645423459 11.579581162698599 1.6051654964770738 -1 0 0
8 2 11.646879237507633 14.289981243752457 0.8143340398739576 -1 -1 0
395 2 12.0543753936939 10.88507295764865 2.3454623585909466 0 1 0
208 1 11.750068099815593 11.687304890187614 1.8698014315693456 0 0 0
415 1 12.779573218632516 13.250608425177418 3.364268842724979 0 0 0
335 2 12.204121191792078 12.64678990596715 2.785687936515169 -1 0 0
293 2 13.791517386995302 10.704714937476448 0.9378125094269959 -1 0 0
966 2 13.713285493856876 13.438623469880433 17.74390047946673 0 -1 0
1269 2 12.358441526184848 14.007928675357812 3.880103041033825 0 0 0
827 2 14.343362517979621 12.06150467439904 3.018760409869949 0 0 0
280 1 14.558541655094126 11.842138163288483 2.076920866456804 0 0 0
262 1 14.910196669167311 11.670676732746625 4.868522708294598 0 0 0
14 2 15.614092365596864 11.66783136049739 2.0129950147088267 -1 -1 0
355 1 11.398929355472854 14.394544221204463 4.945740544646292 0 0 0
432 2 15.79828810445911 11.876757181016036 4.3556269708934625 0 0 0
632 2 15.066795590255081 11.905376835822805 5.771345683894171 1 0 0
746 2 11.08211796661253 13.45859319904397 5.100641868468868 0 0 -1
427 1 14.688337808117112 14.303719420878933 4.988047041318078 0 0 0
385 1 12.760604600730787 13.141832709587618 18.096126761462948 0 0 -1
89 2 15.806316434212837 10.514316608973859 4.191228932277865 0 0 0
274 1 15.559551063597691 9.81678486906677 3.6079030370755376 0 0 0
1128 2 15.524999423418238 9.573109822366336 0.3186181131383882 0 0 1
1265 2 16.11794399558409 9.837772276439823 2.797100953106911 0 1 0
875 2 18.21343592861722 9.209072291461798 2.613040358345313 -1 0 1
397 1 14.554970907262215 14.244972549625636 1.6536515521049653 0 0 0
729 2 17.143361734787455 12.46435241486499 3.676286622688581 -1 0 0
819 2 16.77663944667019 10.606574553889653 0.77960663170903 -1 0 0
180 2 17.855414711463567 11.314573891517567 1.8041068339198834 0 0 0
256 1 16.92382215884511 11.084828359609931 1.6803394746036888 0 0 0
391 1 16.37267341936085 13.06881970063149 3.2583090793917435 0 0 0
286 1 17.441629413519298 11.433501297634754 5.063215091397201 0 0 0
99 2 14.90521188810978 13.984849707911769 0.8474623960579996 0 -1 1
81 2 16.402287135958915 13.920668271381505 3.6853709490513147 -1 0 0
849 2 18.544775132131406 13.687000605846286 1.2419783419384758 0 0 0
421 1 17.947174284947284 14.277383669174693 1.820776930457365 0 0 0
443 2 17.368424998448727 13.888477142445746 2.32980741111291 -1 -1 0
1011 2 17.480142913971335 11.645897938264396 5.949119323512482 -1 0 0
403 1 18.022829693308235 14.514337169996468 4.709427980578039 0 0 0
1082 2 17.455442719413234 13.99857598042897 5.496519850607033 0 0 1
719 2 16.886441614510325 13.48336279130409 18.089764396588286 0 0 0
409 1 16.174153856433826 13.16090278041375 0.4585886329789409 0 0 0
474 2 18.39017061635818 18.46433946652427 2.8716700212758886 0 0 0
752 2 4.905556091330115 15.056517006190294 0.9307278102652556 0 -1 1
301 1 2.205415126066045 14.533687591689185 2.0094998591003277 0 0 0
780 2 3.4339678276015118 15.037528596615529 4.888592894930068 0 0 0
1242 2 2.869707111152502 13.736793899289772 2.002507445065535 0 0 1
7 1 3.6333406418533483 0.9967421302611689 3.426389076765388 0 0 0
698 2 5.906240037993634 14.559828686463007 4.875424915554915 1 0 1
1161 2 3.108016452248822 15.389471352739417 2.6417887558772386 0 0 0
1275 2 3.1795592108206456 18.944011873155834 1.6276302863682732 1 0 1
322 1 3.7941333985059678 15.976713838948926 3.2290507376741235 0 0 0
328 1 2.5086750950455015 18.328410215144718 1.4232559254592358 0 0 0
1268 2 3.1355275831448814 17.003725093066233 4.6265305112539625 1 0 1
1257 2 4.288975252581767 16.573751724556942 2.6143339279749487 1 0 1
310 1 2.2898483152454876 17.55378975643525 4.537736163931355 0 0 0
17 2 3.379246446314727 16.379861830807442 1.0743206201892193 0 0 -1
304 1 5.281711937058823 17.330160076322834 1.9033247412305825 0 0 0
992 2 18.486336248414414 15.431623268200768 2.4789550887625613 0 -1 0
653 2 1.588686679258512 16.843810339294954 4.804977843245262 0 1 0
1236 2 4.836051443286614 17.5793690366477 1.1230484733644057 0 -1 1
1101 2 2.114633855926205 14.91802125385888 1.2275985958685274 0 0 1
55 1 10.300125167129949 18.493890994172922 3.041990174862768 0 -1 0
349 1 8.320420122924784 14.471333540865157 1.857401310521492 0 0 0
957 2 5.387378939411668 13.658855130637242 0.8302339704762121 0 0 1
79 1 6.836080650639112 1.0390645343749667 2.8923042207107628 0 0 0
840 2 7.677584210496666 14.964144404511083 2.346595695376298 0 0 0
434 2 5.75900420936443 18.154368352924227 2.032161628184782 -1 0 0
861 2 5.833911015680828 15.762656182642557 2.5621767262695796 1 0 1
201 2 6.983202879257655 15.375245370266137 3.7474990623692497 -1 0 0
346 1 6.746249238980332 15.753423546974687 2.9699139261819574 0 0 0
376 1 8.513539429822327 17.10344660532258 1.6551676435734024 0 0 0
948 2 7.854352593485692 17.89571335058908 1.5354287944306533 0 0 1
370 1 10.173242319605796 15.72343084838808 3.256519911849708 0 0 0
1097 2 8.413711822448594 16.883684934489423 2.648170364769236 0 0 1
48 2 7.612843232487619 17.01357693191513 16.42185735476461 0 -1 -1
165 2 10.975279216676201 17.15658258722638 1.9878292325208389 -1 0 0
358 1 8.356646125378187 17.152543505733973 4.290084536846257 0 0 0
858 2 7.831999017503065 16.914362831492383 5.2809541232680495 1 1 0
45 2 7.299581171025387 16.73913524579331 0.6156757911069266 0 -1 0
1113 2 10.818321547500071 1.3307544268110454 2.5285469310300144 1 0 1
258 2 13.277066011479226 1.3282539130738145 3.2834070551286962 0 2 0
587 2 9.831652724939095 13.154373594073657 17.891067959768108 -1 0 -1
373 1 11.9288954479497 14.74135725230256 1.6604372881946483 0 0 0
680 2 10.413316814994872 15.130763976005344 3.9552318956098995 0 -1 0
279 2 10.295809517256195 17.95652787695722 3.9042515192127865 1 -1 0
701 2 13.001793234410442 16.34305688959138 0.8155116091915531 0 0 0
127 1 12.923434232905688 18.68307095796475 3.553350598133142 0 -1 0
741 2 13.961998759633829 15.34747078159896 3.062855572128366 0 0 1
352 1 11.80599970101038 17.357921763051507 1.419387725085909 0 0 0
394 1 13.317494826988005 15.77278907136066 3.6349118302951857 0 0 0
977 2 13.948344619518172 15.25716273273145 4.333415222963875 0 0 0
1071 2 12.673631490099446 15.753423127710708 17.57081554217359 0 -1 -1
23 2 11.177688119863268 18.09876208491625 0.8231750839563637 0 -1 0
412 1 13.27822519860545 15.757868069002953 18.258094079383305 0 0 -1
1251 2 11.875940611419946 17.817033768293363 4.2965542416516564 -1 0 1
1217 2 9.488104167894189 18.508495874568307 17.853281096561062 1 -1 0
1047 2 16.525408358216986 18.123760637254534 3.3704013095995773 -1 0 1
1116 2 14.646833027934704 13.250380112480414 1.9924408523309542 0 0 1
1218 2 17.13761898069896 16.718883444199072 2.0104778835721664 -1 0 1
298 1 18.948164262575226 16.346348912615206 2.983380554193901 -1 0 0
424 1 14.382826064251521 17.41888752904763 1.7761224483243379 0 0 0
728 2 14.9363123998277 17.793590890808865 2.539069400254789 0 0 1
31 1 18.923731076484692 0.959438063759213 3.4385281221582797 -1 0 0
316 1 1.1414555189376407 16.07453536955654 0.4355207608351134 0 0 0
668 2 16.0360370929277 15.558349598021865 4.145206776297652 0 -1 1
635 2 16.962847831389812 18.716368638012504 18.188587780334515 0 0 0
400 1 17.576858578232947 17.552517124694976 1.8101491026929335 0 0 0
418 1 16.098214653107682 15.530725425321215 3.1647159490645334 0 0 0
1211 2 16.844051352919266 18.164498475578153 1.5596874399342213 0 0 1
1094 2 1.4539920679255394 18.475623792852286 6.2225084745504775 1 -1 1
876 2 15.255053652496207 14.967502794825565 2.672702917453164 -1 -1 1
891 2 2.117404901813277 18.10617752336826 2.31579070601197 0 0 1
406 1 14.705837896137778 17.416419542642572 5.044444614786652 0 0 0
430 1 17.377989665400904 17.219400590071256 4.8058702156292 0 0 0
1034 2 18.13589828053294 16.92981814879804 4.143076836367243 -1 0 1
1179 2 18.596057954682266 16.6706752553318 0.869907905938232 0 0 1
1191 2 15.409011432836758 16.83066609139233 0.905689605016793 -1 0 0
425 2 1.8705493112049905 3.414847964766759 5.196114889661091 1 1 0
962 2 6.02079349562335 1.7859296067142167 5.178489215546701 1 0 1
1170 2 4.849780343916502 2.838398977245733 5.331244793096673 0 1 0
762 2 1.8126052059991968 5.557563635119827 4.685765558038594 -1 1 0
436 1 3.7743088916556515 3.5477165210101695 6.430205913655836 0 0 0
445 1 2.315929983536215 2.2607507395318893 7.79614969429388 0 0 0
125 2 4.436575875190828 4.288155773687214 6.789688631453379 0 0 -1
1127 2 1.402892034536134 2.4664522255630024 7.542698281964121 1 0 0
1247 2 3.090716883300944 2.737480308105356 7.330688899027896 0 0 0
1104 2 4.924471737518235 1.5242565443606573 7.093970502454037 0 1 1
147 2 4.388716667516303 2.9988231197457944 9.481969671142705 0 -1 -1
19 1 5.27295863854308 2.3656256982447914 4.637141465527145 0 0 0
448 1 5.6193110405651 5.217774209161508 7.769061220159682 0 0 0
932 2 1.7556441671951277 4.868400024218167 9.625767079147803 0 0 1
447 2 3.325520628100929 4.888095418210188 8.27825184471508 0 0 1
1052 2 2.8854276716247433 3.7233784799590026 5.989021877482733 0 0 1
469 1 5.52574919407174 2.2249590179241765 7.566842576357911 0 0 0
460 1 19.089785040079633 4.490244282200001 6.494959834056899 -1 0 0
870 2 5.80613605808534 5.799036382978205 8.587129938354575 0 0 1
606 2 3.32004137084314 1.7338188989259982 8.859858151065383 -1 1 0
91 1 8.765292311239872 1.5586393095604452 4.7487561129190805 0 0 0
70 1 8.55565457390529 5.1781544541979105 4.8482022643513085 0 0 0
1158 2 7.980958111780837 5.85019063233241 4.9647290243041935 0 0 0
374 2 4.848611825689862 2.6989004546991677 7.979364304231287 1 1 0
392 2 9.302710848715288 1.240716797088409 5.656696990948277 0 0 0
1167 2 7.664859715354177 4.300050490956783 5.791423934955401 -1 0 0
498 2 6.508209412498051 3.3612871529988193 6.476532126530388 0 1 1
508 1 7.408679704162342 3.3563775029074585 6.14704559035147 0 0 0
493 1 8.465172250177368 2.1927724167414047 8.357856442555175 0 0 0
831 2 8.544805627855121 2.494113551661705 7.4751899101353 0 0 1
371 2 9.314419854094753 1.5938395088302035 8.471444641024219 0 1 0
1017 2 7.491427290635525 18.40570937723275 6.695328974529246 -1 -2 0
914 2 10.816558217149893 4.180476186007436 6.268263294335065 0 0 0
520 1 8.419734993251975 5.045881868648024 8.023376349588858 0 0 0
1139 2 7.504854262019109 5.118895856604172 7.747291786226313 1 0 1
487 1 10.096096264440952 19.029365492376503 9.330851975834728 0 -1 0
126 2 6.696743973200239 1.5158868012878002 7.046203898968047 0 1 -1
821 2 7.162585301264286 19.0954036889076 8.736856934635833 0 0 0
67 1 11.413804549291628 1.9403342547899263 4.723840082970029 0 0 0
1164 2 10.762907143850217 1.3579747381502314 5.435668851709525 -1 1 1
278 2 14.667270458015079 1.7407144028325527 3.848784883533257 0 1 -1
94 1 11.470880945617258 5.472912182457604 4.67984507774645 0 0 0
1220 2 9.744831099248279 2.7698073496909146 5.990828240129422 0 0 1
484 1 9.968115493965165 3.6636935098972807 6.216400435768722 0 0 0
517 1 11.447204532828671 2.1477158537756447 7.689539836859268 0 0 0
556 1 12.934663630649537 4.006621479236614 6.407298782917377 0 0 0
725 2 12.484970860467095 3.14176928627225 6.651359326413144 0 1 -1
617 2 13.836720815962606 4.6896754650369665 5.4676779752939675 -1 0 -1
534 2 10.57951335087719 1.5109110923702824 7.167028558910701 0 0 0
404 2 11.617296785256642 3.6935742298061127 9.794714450434029 0 1 0
1287 2 12.081742932835242 1.1822550356593673 8.690489232665902 0 1 0
704 2 13.204816168306852 4.300497777318062 7.274285637139548 -1 -1 0
485 2 12.090639957497919 5.056005782275018 7.779825290017393 0 0 0
282 2 10.856913021151708 2.7788401281024715 8.102156971067675 0 0 1
541 1 14.709531231284585 2.5313124652071455 7.71780550575328 0 0 0
496 1 11.166415026591597 4.94284816425939 7.774026034635989 0 0 0
1115 2 10.919256247210093 5.718384170723281 8.561844445991898 0 0 0
230 2 9.487066397503408 18.029941361189522 6.614433841427474 1 -1 0
514 1 10.135141962101569 3.8752623809840427 9.977753470238483 0 0 0
1005 2 12.553153739118711 2.9173505623058142 8.679302416206408 1 0 1
479 2 9.038058962952496 17.702824941837473 10.192699460825324 0 0 1
115 1 17.43402058999771 2.4052082079501336 4.574303033519936 0 0 0
142 1 17.650514084512647 5.642171024767976 4.930395826754374 0 0 0
297 2 1.359925293989194 5.065092226582186 7.11170569938022 0 1 -1
666 2 18.35783590769201 3.7828833472155434 6.702920833043294 0 0 0
252 2 16.544482978209995 1.7597432341288899 5.566112425619158 0 1 0
792 2 14.164190010869087 1.9144189115819068 7.2281306976102115 0 1 0
348 2 16.709693915764372 3.926617676576385 6.390231835550317 0 1 0
987 2 15.057156758451086 2.8927872238615793 4.792483263426998 0 0 1
532 1 15.859338742090289 4.044044938223887 5.9787151379194725 0 0 0
565 1 17.82530313664191 2.6527785007627793 7.457837362845569 0 0 0
1008 2 15.265245934589512 3.8356565168927372 6.747894488738678 0 1 1
980 2 17.141270750623068 3.011775448176673 7.966300463477338 0 0 1
544 1 17.135103135432747 5.71362690728878 7.786960089485367 0 0 0
562 1 16.32506609943722 3.711761164434495 9.096671948850618 0 0 0
426 2 1.7898938281302288 1.2545668877725469 8.731953941309134 0 1 0
545 2 18.966441985765695 1.3538120635605846 5.449886085307804 0 1 0
568 1 14.474062525328087 5.111570273037804 8.137120299450823 0 0 0
1199 2 17.69266707844245 6.609442796485293 5.071267846824256 -1 0 0
1059 2 16.558118220741555 6.422473427048572 7.881189569306884 -1 0 1
80 2 18.254687569293377 17.548402414115763 6.899376823418291 -1 -1 0
535 1 16.442653567934926 19.105186727438127 9.187522557646087 0 -1 0
294 2 14.648669359663389 4.38831810353294 8.697547223163541 0 0 -1
159 2 16.634031724447865 4.518019182129718 8.682394136690727 -1 0 -1
72 2 3.5566914640298144 7.631718540359265 5.550657942426447 1 -1 0
96 2 2.935964830644962 5.581072779190028 5.815096868629399 1 0 0
22 1 2.774214553115235 5.43782413958043 4.860016925698879 0 0 0
1163 2 3.2859116783513467 6.7376412884285255 7.066166707872295 1 1 0
693 2 6.010285488774551 4.342536974011865 7.987830792961323 1 0 -1
605 2 19.044991672370454 7.062644329499637 7.768178528912855 -1 0 1
776 2 4.846819209641301 7.375217223689187 6.822346929510372 0 0 1
472 1 2.8148529524450296 5.559079442777656 7.8356449079841655 0 0 0
601 1 3.988419799313467 6.8832376956113155 6.28212005369191 0 0 0
589 1 2.394666131991465 8.870158162047606 7.854818086951441 0 0 0
518 2 3.016655949533707 9.62782936394281 7.676498931946789 0 0 0
344 2 1.5344603446298635 8.928990475824538 8.30563964609485 0 0 0
583 1 4.1622296134508865 7.238822934960872 9.694917477296766 0 0 0
86 2 4.619344659545913 8.567807002038155 8.167966514393317 0 0 0
1001 2 2.4039807473937627 6.1044125653002395 8.350449573862695 1 0 1
885 2 4.429964095377102 8.841724462064601 5.656258666756594 0 0 1
150 2 3.9593385193404838 9.581378622232886 10.350197331982116 1 0 -1
117 2 5.387457901697347 4.913925726974027 4.946790139640105 1 -1 0
263 2 6.6001507906972705 7.44856511385344 5.411172204434534 1 0 0
401 2 9.429811835511146 8.562698259010073 5.134074233962097 1 1 0
41 2 9.52040499764092 6.830582036128549 5.503783630701769 0 0 -1
15 2 7.850784468308359 7.267766227812912 6.88585740282189 0 0 0
613 1 5.324339277988434 8.107830661530713 7.754192151597355 0 0 0
710 2 6.879705033976664 7.663250180234251 9.937181815660432 1 0 0
723 2 6.6110862363188545 6.478761502413731 6.868425889330839 0 0 0
267 2 5.6669778554328625 7.444932715399984 8.476341297413033 0 0 0
625 1 7.285694238628338 6.8079885001819935 6.209787415405604 0 0 0
637 1 8.411925725037008 7.878877720586856 7.85764434465083 0 0 0
314 2 8.959873454147537 5.666829617534449 7.664925327075529 0 0 -1
194 2 10.812619768885652 6.4812778748007025 6.398138284277232 -1 0 0
649 1 9.947956992894401 6.804545515901322 6.430212289262145 0 0 0