-7.265049999999999564e-01 2.468906000000000045e+00 -3.079300000000000093e-02 -1.084267000000000092e+00 -2.329095999999999833e+00 1.506599999999999953e-02 -8.060209999999999875e-01 -2.362632000000000065e+00 3.887199999999999683e-02 1.531622999999999957e+00 -1.062130000000000019e-01 -8.080000000000000376e-03 5.485600000000000476e-01 1.165049999999999919e+00 -1.730944999999999956e+00 5.366100000000000314e-01 1.163985999999999965e+00 1.715878000000000014e+00
