
     Program PWSCF v.5.4.0 starts on 22Sep2019 at 18:54:43 

     This program is part of the open-source Quantum ESPRESSO suite
     for quantum simulation of materials; please cite
         "P. Giannozzi et al., J. Phys.:Condens. Matter 21 395502 (2009);
          URL http://www.quantum-espresso.org", 
     in publications or presentations arising from this work. More details at
     http://www.quantum-espresso.org/quote

           HOST :    @host@
           ARCH :    
             CC :    cc
            CPP :    cpp
            F90 :    mpif90
            F77 :    gfortran
         DFLAGS :    -D__GFORTRAN -D__STD_F95 -D__FFTW3 -D__MPI -D__PARA
      BLAS LIBS :    -lopenblas
    LAPACK LIBS :    -lopenblas
       FFT LIBS :    -lfftw3
      MASS LIBS :    

     Parallel version (MPI), running on    28 processors
     R & G space division:  proc/nbgrp/npool/nimage =      28
     Waiting for input...
     Reading input from standard input
Warning: card &IONS ignored
Warning: card / ignored
Warning: card &CELL ignored
Warning: card / ignored

     Current dimensions of program PWSCF are:
     Max number of different atomic species (ntypx) = 10
     Max number of k-points (npk) =  40000
     Max angular momentum in pseudopotentials (lmaxx) =  3

     IMPORTANT: XC functional enforced from input :
     Exchange-correlation      = PBE ( 1  4  3  4 0 0)
     Any further DFT definition will be discarded
     Please, verify this is what you really want


     gamma-point specific algorithms are used

     Subspace diagonalization in iterative solution of the eigenvalue problem:
     a serial algorithm will be used


     Parallelization info
     --------------------
     sticks:   dense  smooth     PW     G-vecs:    dense   smooth      PW
     Min         445     445    110                37558    37558    4694
     Max         448     448    112                37564    37564    4708
     Sum       12517   12517   3125              1051747  1051747  131683
     Tot        6259    6259   1563



     bravais-lattice index     =            1
     lattice parameter (alat)  =      18.8973  a.u.
     unit-cell volume          =    6748.3346 (a.u.)^3
     number of atoms/cell      =            5
     number of atomic types    =            2
     number of electrons       =         8.00
     number of Kohn-Sham states=            4
     kinetic-energy cutoff     =     110.0000  Ry
     charge density cutoff     =     440.0000  Ry
     convergence threshold     =      1.0E-06
     mixing beta               =       0.5000
     number of iterations used =            8  plain     mixing
     Exchange-correlation      = PBE ( 1  4  3  4 0 0)

     celldm(1)=  18.897261  celldm(2)=   0.000000  celldm(3)=   0.000000
     celldm(4)=   0.000000  celldm(5)=   0.000000  celldm(6)=   0.000000

     crystal axes: (cart. coord. in units of alat)
               a(1) = (   1.000000   0.000000   0.000000 )  
               a(2) = (   0.000000   1.000000   0.000000 )  
               a(3) = (   0.000000   0.000000   1.000000 )  

     reciprocal axes: (cart. coord. in units 2 pi/alat)
               b(1) = (  1.000000  0.000000  0.000000 )  
               b(2) = (  0.000000  1.000000  0.000000 )  
               b(3) = (  0.000000  0.000000  1.000000 )  


     PseudoPot. # 1 for  H read from file:
     ../pseudo/H.tm.pbe.UPF
     MD5 check sum: 4b614d66af87240b7a5107bfa527a767
     Pseudo is Norm-conserving, Zval =  1.0
     Generated using "atomic" code by A. Dal Corso  v.5.2.0
     Using radial grid of  929 points,  0 beta functions with: 

     PseudoPot. # 2 for  C read from file:
     ../pseudo/C.tm.pbe.UPF
     MD5 check sum: a4f27fcb9b24331b00ace8e732a7e062
     Pseudo is Norm-conserving, Zval =  4.0
     Generated using "atomic" code by A. Dal Corso  v.5.2.0
     Using radial grid of 1073 points,  1 beta functions with: 
                l(1) =   1

     atomic species   valence    mass     pseudopotential
        H              1.00     1.00000      H( 1.00)
        C              4.00     1.00000      C( 1.00)

     No symmetry found



   Cartesian axes

     site n.     atom                  positions (alat units)
         1           H   tau(   1) = (   0.5426700   0.3996500   0.3533360  )
         2           H   tau(   2) = (   0.4095390   0.4724120   0.4406880  )
         3           H   tau(   3) = (   0.5646640   0.5542740   0.4449410  )
         4           H   tau(   4) = (   0.5513400   0.3989860   0.5340670  )
         5           C   tau(   5) = (   0.5192440   0.4556910   0.4437290  )

     number of k points=     1
                       cart. coord. in units 2pi/alat
        k(    1) = (   0.0000000   0.0000000   0.0000000), wk =   2.0000000

     Dense  grid:   525874 G-vectors     FFT dimensions: ( 128, 128, 128)

     Largest allocated arrays     est. size (Mb)     dimensions
        Kohn-Sham Wavefunctions         0.14 Mb     (    2354,    4)
        NL pseudopotentials             0.11 Mb     (    2354,    3)
        Each V/rho on FFT grid          1.25 Mb     (   81920)
        Each G-vector array             0.14 Mb     (   18782)
        G-vector shells                 0.02 Mb     (    2785)
     Largest temporary arrays     est. size (Mb)     dimensions
        Auxiliary wavefunctions         0.29 Mb     (    2354,   16)
        Each subspace H/S matrix        0.00 Mb     (      16,   16)
        Each <psi_i|beta_j> matrix      0.00 Mb     (       3,    4)
        Arrays for rho mixing          10.00 Mb     (   81920,    8)

     Initial potential from superposition of free atoms
     Check: negative starting charge=   -0.000382

     starting charge    7.99992, renormalised to    8.00000

     negative rho (up, down):  3.821E-04 0.000E+00
     Starting wfc are    8 randomized atomic wfcs

     total cpu time spent up to now is      153.4 secs

     per-process dynamical memory:   430.8 Mb

     Self-consistent Calculation

     iteration #  1     ecut=   110.00 Ry     beta=0.50
     Davidson diagonalization with overlap
     ethr =  1.00E-02,  avg # of iterations =  2.0

     negative rho (up, down):  1.805E-04 0.000E+00

     total cpu time spent up to now is      153.9 secs

     total energy              =     -16.02013076 Ry
     Harris-Foulkes estimate   =     -16.40592789 Ry
     estimated scf accuracy    <       0.68565880 Ry

     iteration #  2     ecut=   110.00 Ry     beta=0.50
     Davidson diagonalization with overlap
     ethr =  8.57E-03,  avg # of iterations =  2.0

     negative rho (up, down):  9.468E-05 0.000E+00

     total cpu time spent up to now is      154.3 secs

     total energy              =     -16.15205903 Ry
     Harris-Foulkes estimate   =     -16.17134809 Ry
     estimated scf accuracy    <       0.05014120 Ry

     iteration #  3     ecut=   110.00 Ry     beta=0.50
     Davidson diagonalization with overlap
     ethr =  6.27E-04,  avg # of iterations =  1.0

     negative rho (up, down):  5.224E-06 0.000E+00

     total cpu time spent up to now is      154.8 secs

     total energy              =     -16.15037622 Ry
     Harris-Foulkes estimate   =     -16.15584010 Ry
     estimated scf accuracy    <       0.01148186 Ry

     iteration #  4     ecut=   110.00 Ry     beta=0.50
     Davidson diagonalization with overlap
     ethr =  1.44E-04,  avg # of iterations =  3.0

     negative rho (up, down):  4.588E-06 0.000E+00

     total cpu time spent up to now is      155.4 secs

     total energy              =     -16.15229897 Ry
     Harris-Foulkes estimate   =     -16.15459075 Ry
     estimated scf accuracy    <       0.00536620 Ry

     iteration #  5     ecut=   110.00 Ry     beta=0.50
     Davidson diagonalization with overlap
     ethr =  6.71E-05,  avg # of iterations =  2.0

     negative rho (up, down):  2.354E-06 0.000E+00

     total cpu time spent up to now is      155.9 secs

     total energy              =     -16.15265216 Ry
     Harris-Foulkes estimate   =     -16.15278119 Ry
     estimated scf accuracy    <       0.00030890 Ry

     iteration #  6     ecut=   110.00 Ry     beta=0.50
     Davidson diagonalization with overlap
     ethr =  3.86E-06,  avg # of iterations =  3.0

     total cpu time spent up to now is      156.3 secs

     total energy              =     -16.15278808 Ry
     Harris-Foulkes estimate   =     -16.15278708 Ry
     estimated scf accuracy    <       0.00000813 Ry

     iteration #  7     ecut=   110.00 Ry     beta=0.50
     Davidson diagonalization with overlap
     ethr =  1.02E-07,  avg # of iterations =  2.0

     total cpu time spent up to now is      156.8 secs

     total energy              =     -16.15278566 Ry
     Harris-Foulkes estimate   =     -16.15278851 Ry
     estimated scf accuracy    <       0.00000693 Ry

     iteration #  8     ecut=   110.00 Ry     beta=0.50
     Davidson diagonalization with overlap
     ethr =  8.67E-08,  avg # of iterations =  1.0

     total cpu time spent up to now is      157.2 secs

     End of self-consistent calculation

          k = 0.0000 0.0000 0.0000 ( 65842 PWs)   bands (ev):

   -16.8054  -9.4424  -9.3293  -8.9284

     highest occupied level (ev):    -8.9284

!    total energy              =     -16.15278566 Ry
     Harris-Foulkes estimate   =     -16.15278621 Ry
     estimated scf accuracy    <       0.00000086 Ry

     The total energy is the sum of the following terms:

     one-electron contribution =     -40.12180813 Ry
     hartree contribution      =      20.88449139 Ry
     xc contribution           =      -6.33252328 Ry
     ewald contribution        =       9.41705436 Ry

     convergence has been achieved in   8 iterations

     Forces acting on atoms (Ry/au):

     atom    1 type  1   force =     0.01389320   -0.00127435   -0.00655158
     atom    2 type  1   force =     0.01205811   -0.00835797    0.01338362
     atom    3 type  1   force =     0.01464826    0.00870005   -0.00556329
     atom    4 type  1   force =    -0.01293523    0.00993061   -0.01773216
     atom    5 type  2   force =    -0.02766434   -0.00899834    0.01646341

     Total force =     0.051486     Total SCF correction =     0.000647


     entering subroutine stress ...

          total   stress  (Ry/bohr**3)                   (kbar)     P=   -0.52
  -0.00000413   0.00000447  -0.00000682         -0.61      0.66     -1.00
   0.00000447  -0.00000140   0.00000295          0.66     -0.21      0.43
  -0.00000682   0.00000295  -0.00000501         -1.00      0.43     -0.74


     init_run     :    127.87s CPU    127.96s WALL (       1 calls)
     electrons    :      3.78s CPU      3.83s WALL (       1 calls)
     forces       :      1.06s CPU      1.06s WALL (       1 calls)
     stress       :      1.09s CPU      1.10s WALL (       1 calls)

     Called by init_run:
     wfcinit      :      3.38s CPU      3.39s WALL (       1 calls)
     potinit      :     54.17s CPU     54.22s WALL (       1 calls)

     Called by electrons:
     c_bands      :      1.55s CPU      1.56s WALL (       8 calls)
     sum_band     :      0.44s CPU      0.45s WALL (       8 calls)
     v_of_rho     :     14.57s CPU     14.64s WALL (       9 calls)
     mix_rho      :      0.21s CPU      0.21s WALL (       8 calls)

     Called by c_bands:
     init_us_2    :      0.04s CPU      0.04s WALL (      17 calls)
     regterg      :      1.52s CPU      1.53s WALL (       8 calls)

     Called by sum_band:

     Called by *egterg:
     h_psi        :      4.85s CPU      4.86s WALL (      25 calls)
     g_psi        :      0.01s CPU      0.01s WALL (      16 calls)
     rdiaghg      :      0.00s CPU      0.00s WALL (      24 calls)

     Called by h_psi:
     add_vuspsi   :      0.00s CPU      0.00s WALL (      25 calls)

     General routines
     calbec       :      0.48s CPU      0.48s WALL (      30 calls)
     fft          :     56.61s CPU     56.70s WALL (     106 calls)
     fftw         :      4.38s CPU      4.40s WALL (     112 calls)

     Parallel routines
     fft_scatter  :     59.34s CPU     59.43s WALL (     218 calls)

     PWSCF        :  2m39.19s CPU     2m39.36s WALL


   This run was terminated on:  18:57:22  22Sep2019            

=------------------------------------------------------------------------------=
   JOB DONE.
=------------------------------------------------------------------------------=
