ITEM: TIMESTEP
0
ITEM: NUMBER OF ATOMS
288
ITEM: BOX BOUNDS pp pp pp
-4.8230799323135010e-01 1.9082308693228271e+01
-3.2153866093709205e-01 1.2721539060935916e+01
-3.2153866093709205e-01 1.2721539060935916e+01
ITEM: ATOMS id type x y z
236 2 0.988234 2.07113 0.694155
284 2 2.98311 2.8798 1.44652
235 1 1.68936 2.60992 0.257529
283 1 3.82043 3.33219 1.55431
285 2 4.46482 2.60303 1.81024
218 2 6.92945 3.29324 2.37002
221 2 5.98093 1.02246 2.84799
220 1 5.9714 1.64404 2.13108
222 2 6.55156 1.20684 1.44027
24 2 4.9701 3.51309 -0.205278
147 2 10.6808 3.5743 1.7961
191 2 9.84388 2.22508 5.85054e-05
98 2 10.6955 -0.192637 -0.0854669
157 1 7.34677 1.0662 -0.178477
90 2 11.6294 2.59724 3.48688
88 1 11.7394 2.29713 2.52442
168 2 11.6414 0.579995 2.65257
89 2 12.7228 2.6148 2.34243
173 2 14.7805 2.74339 0.768299
172 1 14.5402 3.07558 1.68779
52 1 18.9361 1.03267 1.2609
54 2 18.7216 0.702552 2.16314
165 2 18.721 3.00516 1.22123
143 2 15.6307 2.66179 2.83738
163 1 18.0623 3.70084 1.43277
164 2 17.3525 3.38624 2.1016
142 1 16.2685 2.74399 3.66075
212 2 15.9295 0.925965 -0.09411
53 2 18.0839 0.870919 0.765995
144 2 16.258 3.62622 4.02449
12 2 17.9869 1.83458 3.99775
10 1 18.5926 1.09132 3.85191
211 1 16.4717 0.0870432 0.131393
155 2 0.518652 6.31189 1.7742
154 1 -0.356272 6.25774 2.21957
277 1 1.85269 7.095 1.00421
278 2 2.69227 7.31808 1.50098
279 2 1.45717 7.91912 0.695808
183 2 0.67056 6.20272 4.00726
217 1 7.29975 4.26203 2.47533
287 2 3.92693 4.36388 3.03523
286 1 3.97413 4.8397 3.91695
256 1 4.18328 7.02686 2.15756
258 2 4.21705 6.42792 2.94312
257 2 5.13943 7.09577 1.76589
37 1 6.75708 6.4216 1.29604
39 2 6.72468 5.45734 1.60105
38 2 6.71601 6.2301 0.316268
145 1 9.9321 4.05976 1.44974
219 2 8.25282 4.2846 2.09948
146 2 10.1798 4.99786 1.67656
227 2 7.65432 7.90495 2.02874
115 1 10.3353 6.77423 1.41648
117 2 9.72738 7.49746 1.61373
116 2 10.5517 6.82441 0.41973
174 2 14.6649 4.09496 1.84483
14 2 13.8372 6.10926 2.5788
128 2 11.8824 6.99488 2.49243
127 1 12.5472 6.91501 3.21181
129 2 12.8207 7.80739 3.48711
13 1 14.7637 5.81385 2.38494
156 2 18.8337 5.38125 2.00092
15 2 15.1803 6.1037 1.53929
32 2 18.1774 7.61989 1.81981
33 2 17.076 8.1243 0.910357
92 2 15.7832 5.7843 3.79293
83 2 17.8973 4.78791 -0.295826
79 1 15.8653 6.96953 -0.221159
6 2 0.574908 12.589 0.525645
4 1 0.823627 11.8108 0.0321329
27 2 2.99612 11.8073 0.46582
65 2 -0.378494 9.06301 0.220055
66 2 0.612323 10.1369 -0.199761
26 2 3.59971 10.7976 1.4451
187 1 3.81332 9.53187 2.88539
188 2 4.10298 8.57713 2.81663
25 1 3.8332 11.4511 0.711541
131 2 5.30516 11.4304 0.00153745
132 2 6.8788 11.3094 -0.0549609
189 2 4.52454 9.9164 3.46458
226 1 8.40232 8.55751 2.03347
125 2 8.67483 8.61564 3.86232
167 2 10.5912 12.5427 3.13834
241 1 8.8194 12.5298 3.72447
9 2 9.18351 11.3484 0.794524
8 2 8.39752 11.8549 2.06092
228 2 8.08363 9.4097 1.71164
7 1 8.34915 11.2655 1.22187
97 1 10.843 11.862 0.272288
166 1 11.543 12.6661 2.82611
99 2 11.3918 12.0283 1.0513
246 2 13.9689 9.86486 0.433972
244 1 14.4134 9.60016 1.21986
245 2 15.0131 8.87175 0.996654
213 2 15.9728 12.6605 0.821342
31 1 17.7475 8.48352 1.50328
204 2 15.6323 10.2042 3.19562
202 1 16.2527 9.64919 3.69067
203 2 16.852 9.38304 2.93771
73 1 1.61896 1.40169 5.44789
75 2 0.964989 1.98236 5.88591
74 2 1.16102 1.01466 4.65763
194 2 1.76095 0.102607 6.56872
35 2 0.0619933 0.349548 8.36501
47 2 0.145976 4.0026 6.73364
195 2 2.18828 0.0853325 8.02444
45 2 3.50537 2.2334 5.46589
119 2 4.5518 2.89259 7.71916
43 1 4.31945 2.6516 5.74256
44 2 4.28249 3.45345 5.10739
273 2 5.57199 1.42654 5.15354
272 2 6.80973 0.51038 5.22482
271 1 6.02231 0.699834 4.68003
243 2 8.53385 0.40916 4.05789
176 2 8.41607 2.40747 5.54623
175 1 8.47431 1.48251 5.78087
177 2 9.34537 1.38089 6.17899
78 2 11.2071 1.67409 7.87882
76 1 11.2026 1.56931 6.9019
265 1 11.1693 3.27096 4.88822
266 2 11.2807 2.74569 5.75347
77 2 11.7715 0.857939 6.63383
30 2 13.6502 0.283404 4.98183
28 1 12.7842 -0.123474 5.1907
205 1 15.1474 0.83841 5.47159
29 2 12.2855 -0.194554 4.31467
206 2 15.4298 1.67161 4.98168
207 2 15.8555 0.174644 5.31863
96 2 16.6088 1.68979 7.32494
11 2 18.1073 0.361922 4.37815
95 2 17.8212 1.50307 8.3699
48 2 18.2234 3.7994 6.79156
46 1 18.9435 3.61628 6.26776
94 1 16.9795 1.96904 8.19612
262 1 1.2137 5.32322 7.12159
288 2 3.08135 5.14994 4.2127
181 1 1.54773 6.10177 4.48696
182 2 1.74934 6.99475 4.70647
263 2 2.00121 5.25496 7.67493
264 2 1.59499 5.60854 6.24985
55 1 6.92456 6.55423 6.76186
56 2 6.98603 5.69078 6.33533
42 2 7.75402 4.41865 4.3488
126 2 8.32873 7.79816 5.22722
40 1 7.83398 4.28696 5.31955
41 2 8.71293 4.65035 5.58973
109 1 9.76017 6.77699 7.44079
110 2 10.5111 6.58643 6.72452
57 2 7.86038 6.73637 6.97485
111 2 9.78072 7.76387 7.63898
267 2 11.4492 4.18034 5.04185
137 2 11.4894 6.75539 4.81427
136 1 11.5056 6.25281 5.69292
138 2 12.4814 6.00725 5.98923
197 2 14.3096 5.45406 7.4081
196 1 14.0061 5.70601 6.47177
134 2 14.1258 7.63965 5.74777
198 2 14.7246 5.45909 5.83156
201 2 18.544 5.99351 6.11869
91 1 15.8983 5.20185 4.57266
93 2 16.6983 5.39895 5.19685
199 1 17.572 6.14445 6.31656
200 2 17.57 6.76124 7.1198
253 1 16.9474 8.05549 8.20099
1 1 2.24104 8.61685 5.27537
2 2 2.03128 9.0323 6.08635
3 2 2.57741 9.28222 4.65478
61 1 2.19799 9.87845 7.89749
193 1 1.57126 12.6383 7.42413
62 2 1.95482 10.7781 7.71881
248 2 6.26179 10.5864 5.52721
247 1 5.33671 10.559 5.28266
249 2 5.02378 11.4747 5.22761
162 2 5.11354 9.3033 7.09572
160 1 4.896 9.37562 8.03717
161 2 3.90213 9.56127 7.94205
124 1 8.85676 8.54099 4.87125
242 2 8.72742 11.892 4.48345
100 1 8.11146 10.9987 5.71511
102 2 8.5331 10.0868 5.57036
101 2 8.3501 11.2821 6.59804
17 2 11.0589 9.9195 7.49238
16 1 10.5788 9.65651 8.31812
106 1 8.61098 11.5668 8.34743
133 1 14.0601 8.40094 5.14315
169 1 12.6477 10.2856 6.79634
170 2 12.6326 11.1766 6.34514
171 2 12.9158 9.62276 6.16659
180 2 14.6819 10.3776 6.83318
135 2 15.0068 8.76133 5.02244
185 2 17.3224 11.3193 4.28299
184 1 17.1497 11.9925 4.92341
179 2 15.618 11.0661 7.88176
186 2 16.6188 11.5184 5.68102
178 1 15.6758 10.5027 7.05013
254 2 16.7073 8.81361 7.66464
237 2 1.97063 2.08337 12.4944
260 2 0.626888 1.333 10.4981
259 1 1.40378 1.31598 11.0771
261 2 2.20529 1.2464 10.4819
238 1 3.42952 0.76058 9.08115
34 1 -0.459588 0.737403 9.1137
159 2 6.84521 0.290745 12.5316
118 1 4.58957 2.99713 8.7009
120 2 3.97527 3.76592 8.98988
240 2 3.91273 1.68482 8.92988
158 2 6.85178 1.88739 12.5385
23 2 6.04849 4.02604 11.8972
22 1 5.72461 3.23039 12.2961
239 2 4.22391 0.216842 9.33999
122 2 6.55853 2.96572 9.12789
190 1 9.94946 1.40982 12.476
121 1 7.5022 3.18251 9.24842
123 2 7.99471 2.28312 9.26112
192 2 8.99631 1.07296 12.5527
230 2 9.54091 1.23539 10.3409
229 1 9.48449 1.22519 9.35154
231 2 9.28681 0.241513 9.02165
223 1 14.9962 2.15686 12.2598
140 2 11.5203 1.46215 11.8757
224 2 14.0086 2.01619 12.0742
139 1 12.4614 1.6631 11.559
141 2 12.5311 0.957965 10.8779
21 2 11.861 3.16375 10.9871
225 2 15.2991 2.916 11.5969
36 2 18.649 0.0269284 9.70334
269 2 15.9031 0.48171 8.71731
51 2 16.5296 3.18871 9.41448
49 1 16.1738 3.73765 10.1386
216 2 1.93555 4.38725 12.0057
274 1 3.12515 5.24332 9.25964
214 1 1.68391 5.3138 11.6983
215 2 1.98968 5.79247 12.4947
275 2 2.6872 5.31977 10.1177
87 2 6.34136 6.62399 8.54144
86 2 5.40198 7.75235 8.8508
276 2 3.80384 5.89445 9.19014
85 1 5.8089 6.9473 9.27948
58 1 6.53638 5.56145 11.4124
60 2 6.17931 6.12015 10.6898
59 2 7.49047 5.59989 11.2057
105 2 8.58797 4.4376 9.54199
104 2 9.43555 5.70298 9.09079
103 1 9.17802 5.16285 9.90365
210 2 10.2891 6.41161 11.2707
208 1 11.0235 6.40589 11.9268
20 2 10.7936 4.1366 10.3753
19 1 11.7395 4.04972 10.6431
209 2 11.539 5.6367 11.5354
152 2 14.7329 4.35121 9.64219
153 2 13.2463 4.67722 9.35713
151 1 14.1218 5.03839 9.10109
69 2 12.0321 7.89218 11.3935
252 2 14.8517 6.59438 9.55601
251 2 13.9825 7.82652 10.1305
250 1 14.9007 7.51974 9.89121
67 1 12.6038 8.35924 10.8155
84 2 18.5818 5.33093 11.5033
50 2 16.8704 4.18171 10.6398
255 2 16.1585 7.99841 8.87169
81 2 16.4613 6.25759 12.5592
80 2 15.4902 7.38156 11.9882
82 1 17.6588 5.2301 11.9095
64 1 0.307975 9.2507 12.6464
63 2 1.96746 9.54624 8.76058
5 2 1.15466 12.2062 12.2601
232 1 -0.396239 9.76659 9.96961
234 2 -0.0516638 9.46861 10.867
130 1 6.0853 11.587 12.4524
72 2 5.68926 11.2804 9.08521
70 1 5.98647 12.076 9.59893
71 2 5.9987 11.7861 10.5679
108 2 7.85077 11.5007 9.00677
107 2 9.23368 10.8157 8.50507
114 2 11.9491 10.8428 12.5874
18 2 11.2573 9.17701 8.87771
112 1 12.791 10.6071 12.0679
68 2 12.6611 9.25249 11.2124
282 2 12.3532 11.7453 9.48769
281 2 13.6167 12.5314 9.31397
280 1 12.6801 12.6427 9.59183
113 2 13.2054 11.4879 12.0391
233 2 18.6161 9.04395 9.70149
268 1 15.5472 12.6466 9.05106
270 2 16.3414 12.372 9.70193
150 2 17.5673 12.3971 11.6508
149 2 18.1128 11.2497 10.4898
148 1 17.703 12.1446 10.7324
ITEM: TIMESTEP
200
ITEM: NUMBER OF ATOMS
288
ITEM: BOX BOUNDS pp pp pp
-5.4050143886239255e-01 1.9140502138859325e+01
-3.6033429115225157e-01 1.2760334691151076e+01
-3.6033429115225157e-01 1.2760334691151076e+01
ITEM: ATOMS id type x y z
236 2 0.783319 1.96008 0.724792
284 2 3.3899 2.82534 1.60207
235 1 1.57274 2.40934 0.34796
283 1 4.16232 3.46694 1.68387
285 2 4.94677 2.87017 1.6987
218 2 7.36468 3.34076 2.59872
221 2 6.21396 1.14705 2.81124
220 1 6.3806 1.73752 2.08643
222 2 6.67488 1.29706 1.28524
24 2 4.68074 3.60495 12.7391
147 2 10.8413 3.34664 2.07843
191 2 9.94819 2.24224 0.2928
98 2 10.3434 0.0352622 0.221872
157 1 7.17034 1.36878 12.5654
90 2 11.7249 2.97278 3.71429
88 1 11.9851 2.58968 2.80671
168 2 11.5536 0.901234 2.92994
89 2 12.9344 2.88693 2.48882
173 2 14.7049 2.59733 0.861669
172 1 14.4411 3.12481 1.71228
52 1 18.7144 0.67225 1.26722
54 2 18.8194 0.403097 2.18141
165 2 18.6148 3.08254 1.1246
143 2 15.828 2.7212 2.88364
163 1 18.1418 3.90404 1.23832
164 2 17.3524 3.43688 1.57497
142 1 16.5566 2.6339 3.59096
212 2 15.7125 0.503724 -0.142876
53 2 17.76 0.509928 1.05739
144 2 16.4681 3.50788 4.06596
12 2 17.8438 1.35714 3.88019
10 1 18.4918 0.584755 3.98657
211 1 16.2305 -0.238263 0.312072
155 2 0.550847 6.37464 1.81336
154 1 -0.0967341 6.20758 2.59435
277 1 1.55159 6.91434 0.392315
278 2 2.40771 7.06027 0.842572
279 2 1.1465 7.74542 0.0762864
183 2 1.04902 6.08955 4.07763
217 1 7.76841 4.24386 2.80248
287 2 3.80692 4.21764 3.20408
286 1 4.03392 4.70065 4.03612
256 1 4.18722 7.1334 2.32167
258 2 4.36028 6.40034 2.95597
257 2 4.84424 6.94849 1.66948
37 1 6.64078 6.43656 0.883357
39 2 6.92299 5.53751 1.24417
38 2 6.676 6.3153 -0.101382
145 1 10.0635 3.66675 1.48364
219 2 8.7054 4.07669 2.51138
146 2 10.1239 4.64748 1.35588
227 2 7.72916 7.74705 1.48065
115 1 10.417 6.95947 1.38698
117 2 9.59368 7.55843 1.52824
116 2 10.5301 6.86523 0.433413
174 2 14.7139 4.08014 1.44419
14 2 14.1646 6.11973 2.37282
128 2 11.8156 7.18152 2.58024
127 1 12.6209 6.95884 3.05259
129 2 13.177 7.74224 3.17485
13 1 14.9083 5.66643 1.88019
156 2 19.05 5.41438 2.38632
15 2 15.2424 6.26298 1.1847
32 2 18.3637 7.63637 2.04518
33 2 17.2188 7.61119 0.914692
92 2 16.2083 5.65657 4.15441
83 2 17.9292 4.50729 12.5887
79 1 16.3607 6.85126 12.6441
6 2 0.0570402 12.3836 0.452029
4 1 0.57733 11.8905 -0.216065
27 2 2.96533 11.9789 0.2729
65 2 18.8528 8.79221 0.241654
66 2 0.192936 9.97427 -0.0402137
26 2 3.75046 11.0347 1.24153
187 1 3.81107 9.97211 3.12596
188 2 4.07744 9.09498 2.82167
25 1 3.81481 11.7704 0.586323
131 2 5.4136 11.7403 12.4815
132 2 6.97743 11.4768 -0.316318
189 2 4.24672 10.2112 3.97849
226 1 8.29507 8.42377 1.98694
125 2 8.56883 8.38391 3.70656
167 2 10.4033 -0.142645 3.09125
241 1 8.86204 12.4664 3.53699
9 2 9.02144 11.3703 0.683016
8 2 8.03962 11.5334 1.85974
228 2 8.37011 9.26449 1.55022
7 1 8.17495 10.9972 1.05029
97 1 10.5371 12.1418 0.447739
166 1 11.4315 -0.0897396 3.06917
99 2 10.8643 12.1719 1.40392
246 2 13.5949 10.0787 0.787844
244 1 14.22 9.49465 1.37091
245 2 14.1174 8.63204 0.971108
213 2 15.6585 12.6274 1.08781
31 1 17.7834 8.22134 1.51456
204 2 15.2654 9.93434 2.86619
202 1 16.1443 9.75391 3.28607
203 2 16.5444 9.0986 2.68293
73 1 1.39711 1.10801 5.39492
75 2 1.22365 1.8252 6.04431
74 2 0.613851 1.05034 4.7803
194 2 1.45785 0.00484769 6.6521
35 2 0.0951356 0.418716 8.63582
47 2 0.763285 4.15032 7.33746
195 2 2.56061 0.051295 7.85056
45 2 3.61326 2.29708 5.75374
119 2 4.95933 3.288 7.38725
43 1 4.48741 2.67902 5.73972
44 2 4.49393 3.50851 5.14575
273 2 5.32208 1.41957 4.99248
272 2 6.67431 0.598189 4.87279
271 1 5.75113 0.593007 4.57424
243 2 8.78291 0.180325 4.11424
176 2 8.22858 2.42926 5.38831
175 1 8.65548 1.5198 5.25556
177 2 9.57001 1.58159 5.73147
78 2 10.5886 1.05014 7.49576
76 1 10.9999 1.48 6.78012
265 1 11.0896 3.5648 5.02262
266 2 11.2015 2.97864 5.76624
77 2 11.7016 0.822528 6.40269
30 2 13.5251 0.391937 5.63066
28 1 12.6906 -0.185073 5.62397
205 1 15.3908 0.985327 5.84508
29 2 12.3459 -0.182837 4.68687
206 2 15.5708 1.59125 5.11792
207 2 15.5395 0.132871 5.36687
96 2 16.2163 1.75118 7.50249
11 2 17.9317 -0.155443 4.22307
95 2 17.5804 1.65755 8.47465
48 2 0.110069 3.3635 6.24856
46 1 0.430874 3.23099 7.1028
94 1 16.597 1.96046 8.41503
262 1 1.06392 5.8098 7.47218
288 2 3.20706 5.19471 4.26553
181 1 1.75303 6.2353 4.76713
182 2 1.94813 7.17691 4.75412
263 2 1.80077 5.8047 8.1155
264 2 1.24229 6.16522 6.61258
55 1 6.93938 6.35409 7.16866
56 2 7.33443 5.6402 6.63385
42 2 8.32386 4.40485 4.51338
126 2 8.79185 7.58126 5.07224
40 1 8.26572 4.37111 5.48541
41 2 9.21756 4.46119 5.72893
109 1 9.77925 7.06218 7.55751
110 2 10.2354 6.89438 6.67102
57 2 7.79982 6.86755 7.29179
111 2 10.1668 7.98344 7.85025
267 2 11.452 4.48562 5.26741
137 2 11.8369 6.55603 4.77455
136 1 11.543 6.08552 5.5583
138 2 12.3877 5.8917 6.06901
197 2 14.022 5.65574 7.31582
196 1 14.1754 5.9755 6.41187
134 2 14.7714 7.71105 5.40027
198 2 14.8764 5.40531 5.9663
201 2 18.8472 6.03918 7.24203
91 1 16.491 5.02781 4.84313
93 2 17.2013 5.72361 5.24683
199 1 17.9408 6.23716 6.85041
200 2 17.661 7.04544 7.25994
253 1 16.9262 8.46901 8.37498
1 1 2.03496 8.86006 4.9747
2 2 1.71216 9.38836 5.72502
3 2 2.61617 9.41981 4.37654
61 1 1.99777 10.046 7.68117
193 1 1.76793 12.7433 7.49248
62 2 1.75179 11.0232 7.76898
248 2 6.0563 10.8681 5.21819
247 1 5.08716 10.8854 5.20338
249 2 5.05068 11.9337 5.07052
162 2 4.94516 9.97098 7.11339
160 1 4.65766 9.84225 8.05447
161 2 3.65666 10.0666 8.07985
124 1 8.71729 8.49287 4.72337
242 2 8.72373 11.7207 4.19171
100 1 7.75453 10.8388 5.4524
102 2 8.04456 9.87936 5.27813
101 2 7.77637 11.0132 6.42984
17 2 11.5014 9.65173 7.63302
16 1 10.7883 9.36253 8.23428
106 1 8.34553 11.6251 8.46022
133 1 14.3833 8.37688 4.84073
169 1 13.1268 9.97713 6.54342
170 2 12.9211 10.7831 5.9379
171 2 13.496 9.27711 5.89601
180 2 14.6389 10.5092 7.39919
135 2 15.121 8.92307 4.48894
185 2 16.5432 11.0264 4.41196
184 1 16.8531 11.872 4.89083
179 2 15.7605 11.4419 8.22029
186 2 16.7364 11.5525 5.81119
178 1 15.5824 10.7183 7.53325
254 2 16.455 9.34409 8.14878
237 2 1.59344 1.92608 12.5903
260 2 0.581747 0.928982 10.4931
259 1 1.29434 0.86471 11.1986
261 2 2.09019 0.701356 10.6249
238 1 3.65733 0.605153 9.34092
34 1 18.9576 0.712896 9.17639
159 2 7.14746 0.47208 12.1029
118 1 5.17957 3.22093 8.37774
120 2 4.51673 3.79342 8.74571
240 2 4.15765 1.45239 9.37397
158 2 6.65939 2.06156 12.1065
23 2 5.75559 4.43672 11.8106
22 1 5.39757 3.52294 12.0466
239 2 4.35838 -0.0923427 9.21246
122 2 6.8751 3.28439 9.01458
190 1 9.81122 1.41909 -0.281834
121 1 7.75094 3.19628 9.36848
123 2 8.21293 2.35446 9.10386
192 2 8.7977 1.43363 12.6264
230 2 9.76561 0.915588 9.87367
229 1 9.29612 1.01444 8.99843
231 2 8.95217 0.0432408 8.84198
223 1 14.8679 1.98891 12.367
140 2 11.709 1.5181 11.6179
224 2 13.9412 1.93783 11.9347
139 1 12.322 1.69043 10.9195
141 2 12.5515 0.863252 10.4296
21 2 12.0321 3.55034 10.3366
225 2 15.3714 2.52777 11.6807
36 2 18.6895 -0.0581948 9.62938
269 2 16.2956 0.554553 9.19489
51 2 16.4701 3.26742 9.55403
49 1 15.9439 3.62368 10.3439
216 2 1.0282 3.93512 12.518
274 1 3.11181 5.31927 9.34416
214 1 0.995238 4.74496 12.0155
215 2 1.22588 5.5232 12.5956
275 2 2.56213 5.21231 10.1464
87 2 5.8155 6.61937 8.26309
86 2 5.02138 7.82945 8.63201
276 2 3.72091 6.04685 9.41033
85 1 5.14039 6.89827 8.91207
58 1 6.73475 5.97353 11.2792
60 2 6.15023 6.46108 10.592
59 2 7.59525 5.94223 10.8591
105 2 8.5873 4.55416 9.33404
104 2 9.4525 6.00707 8.92057
103 1 9.1378 5.37096 9.62526
210 2 9.82385 6.16159 11.0041
208 1 10.4668 6.49017 11.7368
20 2 10.7662 4.47969 9.82108
19 1 11.6629 4.48117 10.2249
209 2 11.2406 5.89589 11.5836
152 2 14.5607 4.35782 9.35152
153 2 13.1557 5.12654 9.63885
151 1 14.0149 5.15533 9.10476
69 2 11.2206 8.00978 10.9087
252 2 14.7864 6.52561 10.019
251 2 13.9329 7.68743 10.4968
250 1 14.8955 7.38503 10.5705
67 1 11.9384 8.53301 10.4614
84 2 -0.611663 5.08836 11.6953
50 2 16.6957 4.17628 10.8457
255 2 16.2787 8.0614 8.90925
81 2 16.8755 6.23725 12.094
80 2 15.691 7.09453 11.9823
82 1 18.0851 5.02298 11.7653
64 1 -0.0409206 9.00937 -0.31851
63 2 1.4972 9.85924 8.48615
5 2 0.938916 12.5677 12.2497
232 1 -0.434894 9.44683 9.8291
234 2 -0.380242 8.90521 10.6838
130 1 6.36799 11.7387 12.0657
72 2 5.46221 10.9986 8.74851
70 1 5.87808 11.7294 9.31662
71 2 5.84828 11.3863 10.2223
108 2 7.41957 11.6868 8.82231
107 2 8.67994 10.7846 8.82988
114 2 11.8956 10.9367 -0.0824434
18 2 11.3256 9.04442 8.98482
112 1 12.8177 10.7633 12.6049
68 2 12.281 9.26846 11.1196
282 2 13.0862 12.2875 8.9223
281 2 14.3707 12.6316 9.82048
280 1 13.3924 12.2241 9.82618
113 2 12.9217 11.4525 11.9051
233 2 18.7094 8.95884 9.18002
268 1 15.995 12.7385 9.41117
270 2 16.6354 12.2911 10.0019
150 2 18.3034 11.6912 11.6334
149 2 18.357 11.014 10.3138
148 1 17.9382 11.8525 10.7514
ITEM: TIMESTEP
400
ITEM: NUMBER OF ATOMS
288
ITEM: BOX BOUNDS pp pp pp
-5.7003779390735687e-01 1.9170038493904297e+01
-3.8002519441124871e-01 1.2780025594410077e+01
-3.8002519441124871e-01 1.2780025594410077e+01
ITEM: ATOMS id type x y z
236 2 0.686421 1.74442 0.449563
284 2 3.07352 2.70033 1.14427
235 1 1.56854 2.06727 0.236101
283 1 3.74234 3.36321 1.34433
285 2 4.41391 2.86866 1.83169
218 2 7.38642 3.58921 2.20134
221 2 5.99097 1.7039 2.9661
220 1 6.22184 2.2007 2.13874
222 2 6.18572 1.57269 1.32578
24 2 4.68045 3.84842 12.2919
147 2 11.0159 3.34317 1.74233
191 2 9.83729 2.50951 -0.175049
98 2 10.405 0.133199 0.116128
157 1 6.9823 1.44653 12.4766
90 2 11.9767 2.92764 3.74829
88 1 12.1555 2.53478 2.88086
168 2 11.7682 0.747587 3.24779
89 2 13.1363 2.71985 2.55149
173 2 14.5157 2.79343 0.880618
172 1 14.5353 3.05477 1.86472
52 1 18.8525 0.509248 1.31976
54 2 18.8026 0.234226 2.32048
165 2 18.6217 2.41061 1.28154
143 2 15.7039 2.95907 3.47284
163 1 18.4075 3.34237 1.49372
164 2 17.569 3.35607 1.9631
142 1 16.5365 2.7095 3.91813
212 2 15.6739 0.658225 -0.0388238
53 2 18.0007 0.390205 0.774111
144 2 16.9028 3.51134 4.38747
12 2 17.9805 1.10507 4.09914
10 1 18.6897 0.427757 4.06259
211 1 16.3975 0.0578243 0.215805
155 2 0.509946 6.25537 1.68429
154 1 -0.0457217 5.85847 2.40903
277 1 1.73627 7.02502 0.613344
278 2 2.59493 7.17731 0.990127
279 2 1.4457 7.86905 0.226886
183 2 1.23271 6.18326 4.24021
217 1 7.82525 4.50218 2.37822
287 2 3.50806 4.70262 3.22811
286 1 3.96697 5.12307 3.96268
256 1 4.13154 7.45998 1.90312
258 2 4.06733 6.65931 2.52565
257 2 4.84213 7.229 1.25156
37 1 6.28383 6.26149 0.855406
39 2 6.71035 5.65761 1.49679
38 2 6.62142 6.2515 -0.0554638
145 1 10.4788 3.75461 0.976854
219 2 8.67261 4.45934 1.92913
146 2 10.5781 4.74422 1.04024
227 2 7.39372 7.63571 1.52248
115 1 10.7157 6.75649 1.05253
117 2 9.94572 7.18686 1.43434
116 2 10.6174 6.67252 0.0205837
174 2 14.6394 4.03307 1.8275
14 2 14.304 6.16793 1.92755
128 2 12.0036 6.85453 2.24918
127 1 12.7507 6.79514 2.84115
129 2 13.127 7.73337 2.79761
13 1 15.1024 5.59537 1.7247
156 2 19.168 5.15992 1.93679
15 2 15.4328 5.91826 0.853207
32 2 18.658 7.62785 2.30141
33 2 17.6304 7.4743 1.11653
92 2 17.1929 5.65934 4.22724
83 2 18.2234 3.95778 -0.196774
79 1 16.2518 6.93728 12.7247
6 2 0.271708 12.4239 0.432127
4 1 0.65329 11.7828 -0.273577
27 2 2.76543 11.472 0.346701
65 2 -0.391467 8.89459 0.421521
66 2 0.49884 9.95871 12.6991
26 2 3.58374 10.8977 1.52438
187 1 3.74135 10.0759 2.95022
188 2 3.9359 9.16212 2.66698
25 1 3.59414 11.6584 0.819789
131 2 5.07505 11.9943 -0.30529
132 2 6.56941 11.573 -0.109681
189 2 4.5108 10.3439 3.45588
226 1 8.15298 8.13897 1.9151
125 2 8.51602 8.4184 3.68036
167 2 10.8387 -0.307188 3.70546
241 1 8.7687 12.4145 3.24971
9 2 8.87371 11.436 0.702155
8 2 8.00672 11.4542 1.91956
228 2 7.99936 9.03498 1.46114
7 1 7.99454 11.0674 1.00521
97 1 10.7119 12.4475 0.675778
166 1 11.6909 -0.252568 3.29196
99 2 11.0399 12.7633 1.582
246 2 13.5143 10.2322 1.06312
244 1 13.832 9.34609 1.23414
245 2 13.895 8.9382 0.392343
213 2 16.0227 12.2929 0.115379
31 1 18.0845 8.13725 1.60429
204 2 15.4226 9.61878 2.07035
202 1 16.1581 9.862 2.79432
203 2 16.8975 9.24655 2.53793
73 1 1.51629 1.27097 5.39144
75 2 1.00147 1.84731 6.0351
74 2 0.847236 1.10823 4.71362
194 2 1.83773 0.0551702 7.05565
35 2 0.524272 0.358337 8.86694
47 2 0.446567 3.8426 6.98892
195 2 2.8275 0.121759 8.30726
45 2 2.89094 2.26499 5.37527
119 2 4.48985 2.79986 7.42217
43 1 3.83343 2.59623 5.55072
44 2 3.90588 3.39536 4.95215
273 2 5.07483 1.58773 4.86487
272 2 6.60428 0.990974 4.96643
271 1 5.65081 0.790512 4.59499
243 2 8.3095 0.0579665 3.49399
176 2 8.1839 2.52753 5.0961
175 1 8.11768 1.53147 5.06972
177 2 8.90977 1.25945 5.53286
78 2 10.024 1.05874 7.51523
76 1 10.5017 1.27095 6.59005
265 1 11.0792 3.86176 5.37095
266 2 11.412 3.50473 6.2116
77 2 11.3097 0.628559 6.56511
30 2 13.7728 0.214202 6.05638
28 1 12.9713 -0.329147 6.12781
205 1 15.5989 1.00131 5.70108
29 2 12.6264 12.7705 5.18286
206 2 15.8914 1.69347 4.99548
207 2 15.9011 0.14376 5.26422
96 2 16.153 1.47653 7.48205
11 2 18.312 -0.394039 4.48639
95 2 17.5049 1.43773 8.20077
48 2 0.48539 2.70232 8.04656
46 1 0.686885 2.9043 7.14539
94 1 16.5419 1.6591 8.36867
262 1 0.77583 5.95326 7.65923
288 2 3.33858 5.72619 4.452
181 1 1.78703 6.44432 4.96891
182 2 1.82344 7.53514 4.88413
263 2 1.53044 5.53432 8.05655
264 2 1.13059 6.07283 6.70645
55 1 7.09463 6.36488 7.13194
56 2 7.30383 5.61203 6.53925
42 2 8.10272 4.3451 4.40068
126 2 8.0291 7.52942 4.80338
40 1 8.34992 4.10352 5.3065
41 2 9.30605 3.88197 5.4463
109 1 9.78776 7.24419 7.31276
110 2 10.4347 7.0654 6.57979
57 2 7.90458 6.81438 7.35928
111 2 10.1173 8.03278 7.84412
267 2 11.4815 4.77305 5.44701
137 2 12.1557 6.63214 4.72421
136 1 11.8939 6.34176 5.67893
138 2 12.8152 6.40756 6.14392
197 2 14.8846 5.95165 7.50817
196 1 14.5837 6.18655 6.59345
134 2 14.572 7.68914 5.28409
198 2 15.3315 5.76455 6.08469
201 2 18.8828 6.35769 7.5281
91 1 17.0285 5.29969 5.10492
93 2 17.5965 5.50513 5.93443
199 1 17.9511 6.47179 7.27818
200 2 17.4276 6.96722 8.01053
253 1 16.7151 8.18557 9.03843
1 1 1.5418 8.99905 4.76879
2 2 1.23493 9.40683 5.65705
3 2 2.12745 9.62577 4.35606
61 1 1.02618 10.0084 7.49776
193 1 1.86363 -0.154714 8.05192
62 2 1.36219 10.8538 7.84744
248 2 6.28108 11.2238 5.46525
247 1 5.25628 11.2338 5.5008
249 2 5.13693 12.1856 5.56054
162 2 4.58746 10.398 7.07343
160 1 4.16292 9.88702 7.81228
161 2 3.21524 9.88525 7.62799
124 1 8.72485 8.16295 4.58489
242 2 8.543 11.8535 4.04191
100 1 8.0177 10.7161 5.35236
102 2 8.36245 9.75212 5.27409
101 2 8.38716 11.0823 6.17312
17 2 11.5469 9.88636 7.77028
16 1 10.7578 9.6163 8.32227
106 1 8.67691 11.413 8.02052
133 1 14.2447 8.50746 4.87452
169 1 13.3484 10.255 6.70314
170 2 13.2687 11.128 6.31933
171 2 13.4608 9.665 5.95642
180 2 15.1718 10.4183 7.1817
135 2 14.9819 8.83319 4.25408
185 2 16.7262 10.9371 4.58163
184 1 16.4499 11.6475 5.25066
179 2 15.858 11.044 8.35408
186 2 16.6826 11.2774 6.17616
178 1 16.0035 10.5406 7.57863
254 2 16.5391 8.95493 8.46789
237 2 1.94383 1.59528 12.6481
260 2 1.32358 0.840139 10.6571
259 1 2.06339 0.470204 11.1612
261 2 2.86058 0.481092 10.5675
238 1 4.03286 0.599784 9.38738
34 1 -0.244598 0.664536 9.33336
159 2 6.47134 0.644334 12.1841
118 1 4.82285 2.93684 8.34602
120 2 4.29332 3.63708 8.72703
240 2 4.56581 1.43882 9.11969
158 2 6.43091 2.26653 12.2837
23 2 5.7274 4.57842 11.4987
22 1 5.40525 3.7121 11.6776
239 2 4.68298 -0.144595 9.48764
122 2 6.70782 2.94064 8.92634
190 1 9.65571 1.67248 12.448
121 1 7.672 3.258 9.1855
123 2 8.14459 2.46028 8.9869
192 2 8.65603 1.5706 12.3651
230 2 10.0623 0.611787 9.58839
229 1 9.28208 0.6302 8.95185
231 2 8.89335 -0.340742 8.76216
223 1 14.3713 1.94937 12.5082
140 2 11.1325 1.71293 11.3976
224 2 13.4876 1.97592 12.0774
139 1 12.0135 1.73688 10.9474
141 2 12.1284 0.815848 10.6492
21 2 11.9193 3.42406 10.2668
225 2 14.8972 2.55915 11.8652
36 2 19.1159 -0.156321 9.78915
269 2 15.8996 0.125059 9.49353
51 2 15.9801 2.62726 9.62567
49 1 15.8293 3.34106 10.3943
216 2 1.50931 4.09922 12.1709
274 1 2.8192 5.03789 9.39599
214 1 1.23186 4.77936 11.5683
215 2 1.41858 5.5852 12.0915
275 2 2.34333 4.91118 10.2539
87 2 5.49143 6.89883 8.0544
86 2 5.00741 8.26993 8.58259
276 2 3.5214 5.71507 9.61641
85 1 5.04128 7.32817 8.791
58 1 6.56498 6.45344 10.9818
60 2 5.93802 6.7998 10.2047
59 2 7.44447 6.33097 10.5996
105 2 8.69229 4.70343 9.38218
104 2 9.2336 5.94973 8.68436
103 1 9.23387 5.53199 9.58905
210 2 10.1004 6.14543 11.1194
208 1 10.8559 6.52953 11.5712
20 2 10.9906 4.44677 9.71174
19 1 11.9215 4.37123 9.98162
209 2 11.5927 6.02162 11.1097
152 2 14.8676 4.56133 9.60223
153 2 13.407 5.13984 9.21918
151 1 14.3851 5.36687 9.25792
69 2 11.3546 8.37024 11.2228
252 2 14.4949 6.97671 10.3466
251 2 13.7648 8.40865 10.6093
250 1 14.6431 7.9152 10.6551
67 1 11.9413 9.01532 10.6884
84 2 18.8818 4.70746 11.8003
50 2 16.6558 3.52721 10.9124
255 2 15.9768 8.06316 9.73178
81 2 16.7319 6.21261 12.3083
80 2 15.7962 7.49065 12.0387
82 1 18.0131 4.38562 12.1257
64 1 0.212873 9.00607 12.7263
63 2 0.641639 9.36792 8.09148
5 2 1.17658 12.4189 12.3272
232 1 -0.276215 9.05149 9.68154
234 2 -0.102031 9.00097 10.6712
130 1 5.96075 11.9544 12.3433
72 2 4.96637 10.8332 9.36682
70 1 5.67659 11.425 9.65501
71 2 5.76801 11.2817 10.6262
108 2 7.86446 10.9868 8.38215
107 2 9.38137 10.7353 8.14148
114 2 11.6471 11.4894 -0.22622
18 2 11.0342 9.25072 9.24482
112 1 12.4205 10.9232 12.5245
68 2 12.1193 9.7235 11.4224
282 2 12.6708 11.5101 9.94586
281 2 13.9313 12.4429 10.079
280 1 12.8973 12.4104 10.2227
113 2 12.8643 11.6564 11.9932
233 2 18.6515 8.52797 9.50609
268 1 15.8774 12.4085 9.91953
270 2 16.7452 12.3708 10.4398
150 2 19.0861 11.7016 11.3924
149 2 18.9205 10.7887 10.0953
148 1 18.6098 11.613 10.5367
ITEM: TIMESTEP
600
ITEM: NUMBER OF ATOMS
288
ITEM: BOX BOUNDS pp pp pp
-4.3303404852580485e-01 1.9033034748522731e+01
-2.8868936464076445e-01 1.2688689764639591e+01
-2.8868936464076445e-01 1.2688689764639591e+01
ITEM: ATOMS id type x y z
236 2 1.07927 2.26756 0.422754
284 2 3.15129 3.36068 0.777073
235 1 1.91219 2.59303 0.0406302
283 1 3.80723 4.06736 1.12095
285 2 4.62261 3.56808 1.45119
218 2 7.07642 3.81909 1.61647
221 2 5.578 1.8388 2.75427
220 1 5.62952 2.47791 2.01499
222 2 6.17274 1.99151 1.37722
24 2 4.63329 3.88718 12.5653
147 2 10.7434 3.46872 1.86241
191 2 9.58303 2.64935 0.0992533
98 2 9.97487 0.391309 0.3016
157 1 6.78327 1.54828 -0.209584
90 2 11.5423 3.17915 3.97004
88 1 11.8124 2.69399 3.12251
168 2 11.4698 0.956173 3.17174
89 2 12.7769 2.91768 3.02206
173 2 14.6072 2.67031 1.54247
172 1 14.5487 3.04844 2.45853
52 1 18.9717 0.384204 1.25713
54 2 19.0604 0.2879 2.26048
165 2 18.4752 2.17958 1.75498
143 2 15.8102 2.60561 3.77462
163 1 18.4025 3.22015 1.82667
164 2 17.5599 3.44745 2.23641
142 1 16.6947 2.67576 4.23559
212 2 15.5209 0.830344 -0.00440446
53 2 17.9612 0.328628 1.03828
144 2 16.7627 3.58977 4.59345
12 2 17.8281 1.26204 4.24322
10 1 18.5543 0.596337 4.14137
211 1 16.461 0.441468 -0.0698841
155 2 0.783886 5.87463 1.70659
154 1 0.113883 5.75631 2.41419
277 1 2.07971 6.66742 0.63302
278 2 2.80522 6.99337 1.20746
279 2 1.55868 7.48568 0.318711
183 2 0.726852 6.13086 3.98709
217 1 7.70009 4.59841 1.72665
287 2 3.44048 4.84628 2.66175
286 1 3.55834 5.20716 3.59542
256 1 4.35778 7.48275 2.26965
258 2 4.42581 6.57962 2.60053
257 2 5.08324 7.46109 1.60803
37 1 6.69927 6.7983 0.612928
39 2 6.9701 5.9089 0.915826
38 2 6.43689 6.60711 12.632
145 1 10.1213 3.78611 1.18969
219 2 8.58111 4.31076 1.36785
146 2 10.2481 4.78483 1.08735
227 2 7.77066 7.84654 1.12581
115 1 10.712 6.65698 1.13525
117 2 9.95032 7.26062 1.22989
116 2 10.9643 6.75874 0.178048
174 2 14.5384 4.0212 2.27381
14 2 14.1331 6.06029 2.46307
128 2 11.8805 6.84904 2.45152
127 1 12.6632 6.88361 3.03788
129 2 12.9624 7.86774 3.08247
13 1 14.986 5.64118 2.21739
156 2 -0.228844 4.82816 2.39304
15 2 15.432 6.13771 1.48103
32 2 18.6494 7.55596 1.84106
33 2 17.3321 7.36611 0.617593
92 2 17.4179 5.58756 4.36417
83 2 17.9061 3.89641 0.147424
79 1 16.2763 6.59001 -0.171319
6 2 0.368319 12.0817 0.291383
4 1 0.901736 11.6002 12.5931
27 2 2.59875 11.1553 0.608129
65 2 -0.0899589 8.65356 0.171246
66 2 0.897577 9.77836 12.6777
26 2 3.51197 11.0699 1.9501
187 1 3.71129 9.67145 3.79363
188 2 4.15973 8.92428 3.22617
25 1 3.36552 11.5325 1.08043
131 2 4.92671 11.7032 0.317339
132 2 6.48215 11.7323 0.119191
189 2 4.4195 10.2297 4.25765
226 1 8.56003 8.32574 1.52086
125 2 8.56557 7.81158 3.40224
167 2 10.5776 -0.350912 3.70629
241 1 8.8892 12.334 3.55934
9 2 9.13458 11.4098 0.900153
8 2 8.24447 11.0272 2.09218
228 2 8.56953 9.28362 1.39285
7 1 8.34771 10.8679 1.14189
97 1 10.2354 12.4857 0.716724
166 1 11.4449 0.036514 3.47919
99 2 10.326 -0.20937 1.69069
246 2 13.3534 9.74757 1.09679
244 1 13.9641 9.01208 1.3514
245 2 14.1698 8.64486 0.502718
213 2 16.7727 0.663298 12.0014
31 1 18.0167 7.99476 1.17888
204 2 15.0301 9.70325 2.24545
202 1 15.7904 9.77582 3.00178
203 2 16.2821 8.98759 2.88144
73 1 1.31647 1.46018 5.59862
75 2 0.849167 2.01914 6.30563
74 2 0.675087 1.14979 4.90784
194 2 2.10506 0.0779725 6.58516
35 2 0.721613 0.674452 8.58553
47 2 0.533343 3.95403 7.297
195 2 2.92695 -0.177077 7.92556
45 2 2.80398 2.79075 5.17708
119 2 4.02112 3.11937 7.2346
43 1 3.71085 3.17479 5.33155
44 2 3.7615 3.92295 4.68759
273 2 4.75151 1.54338 4.682
272 2 6.22375 1.24719 4.88926
271 1 5.48516 0.976138 4.36874
243 2 8.47618 0.238847 3.7034