
     Program PWSCF v.6.7MaX starts on 25Jun2022 at  2:10:52 

     This program is part of the open-source Quantum ESPRESSO suite
     for quantum simulation of materials; please cite
         "P. Giannozzi et al., J. Phys.:Condens. Matter 21 395502 (2009);
         "P. Giannozzi et al., J. Phys.:Condens. Matter 29 465901 (2017);
          URL http://www.quantum-espresso.org", 
     in publications or presentations arising from this work. More details at
     http://www.quantum-espresso.org/quote

     Parallel version (MPI), running on    20 processors

     MPI processes distributed on     1 nodes
     R & G space division:  proc/nbgrp/npool/nimage =      20
     Reading input from nscf.in
Warning: card  &IONS ignored
Warning: card  / ignored
Warning: card  &CELL ignored
Warning: card  / ignored

     Current dimensions of program PWSCF are:
     Max number of different atomic species (ntypx) = 10
     Max number of k-points (npk) =  40000
     Max angular momentum in pseudopotentials (lmaxx) =  3

     Atomic positions and unit cell read from directory:
     out/h2o.save/
     Atomic positions from file used, from input discarded
 
     Message from routine read_pp_mesh:
     mesh size missing, using the one in header
     Message from routine read_pp_mesh:
     mesh size missing, using the one in header

     IMPORTANT: XC functional enforced from input :
     Exchange-correlation= PBE
                           (   1   4   3   4   0   0   0)
     Any further DFT definition will be discarded
     Please, verify this is what you really want


     Subspace diagonalization in iterative solution of the eigenvalue problem:
     a serial algorithm will be used

 
     Parallelization info
     --------------------
     sticks:   dense  smooth     PW     G-vecs:    dense   smooth      PW
     Min         314     314     87                18735    18735    2725
     Max         317     317     88                18736    18736    2730
     Sum        6293    6293   1741               374709   374709   54531
 

     Title: 
      Water 16 molecules                                                        


     bravais-lattice index     =            0
     lattice parameter (alat)  =      11.4740  a.u.
     unit-cell volume          =    1510.5751 (a.u.)^3
     number of atoms/cell      =           48
     number of atomic types    =            2
     number of electrons       =       128.00
     number of Kohn-Sham states=           64
     kinetic-energy cutoff     =     150.0000  Ry
     charge density cutoff     =     600.0000  Ry
     Exchange-correlation= PBE
                           (   1   4   3   4   0   0   0)

     celldm(1)=  11.473981  celldm(2)=   0.000000  celldm(3)=   0.000000
     celldm(4)=   0.000000  celldm(5)=   0.000000  celldm(6)=   0.000000

     crystal axes: (cart. coord. in units of alat)
               a(1) = (   1.000000   0.000000   0.000000 )  
               a(2) = (   0.000000   1.000000   0.000000 )  
               a(3) = (   0.000000   0.000000   1.000000 )  

     reciprocal axes: (cart. coord. in units 2 pi/alat)
               b(1) = (  1.000000  0.000000  0.000000 )  
               b(2) = (  0.000000  1.000000  0.000000 )  
               b(3) = (  0.000000  0.000000  1.000000 )  


     PseudoPot. # 1 for O  read from file:
     ../O_ONCV_PBE-1.2.upf
     MD5 check sum: e36c48deb68f4e355fffe4602be2c42c
     Pseudo is Norm-conserving, Zval =  6.0
     Generated using ONCVPSP code by D. R. Hamann
     Using radial grid of  602 points,  4 beta functions with: 
                l(1) =   0
                l(2) =   0
                l(3) =   1
                l(4) =   1

     PseudoPot. # 2 for H  read from file:
     ../H_ONCV_PBE-1.2.upf
     MD5 check sum: bf21e08b90ac4ce7d0149ac4e8138190
     Pseudo is Norm-conserving, Zval =  1.0
     Generated using ONCVPSP code by D. R. Hamann
     Using radial grid of  602 points,  2 beta functions with: 
                l(1) =   0
                l(2) =   0

     atomic species   valence    mass     pseudopotential
        O              6.00    16.00000     O ( 1.00)
        H              1.00     1.00000     H ( 1.00)

     No symmetry found



   Cartesian axes

     site n.     atom                  positions (alat units)
         1           O   tau(   1) = (   0.0225511   0.9999680   0.0129475  )
         2           O   tau(   2) = (   0.4918410   0.0016409   0.9984792  )
         3           O   tau(   3) = (   0.9957683   0.5029070   0.0202557  )
         4           O   tau(   4) = (   0.5073620   0.4969614   0.9870476  )
         5           O   tau(   5) = (   0.9891195   0.9763884   0.4707467  )
         6           O   tau(   6) = (   0.5099000   0.0162406   0.5017245  )
         7           O   tau(   7) = (   0.9765828   0.5019204   0.5036843  )
         8           O   tau(   8) = (   0.5033615   0.4840014   0.4910472  )
         9           O   tau(   9) = (   0.2358827   0.2488673   0.2670169  )
        10           O   tau(  10) = (   0.7487003   0.2400594   0.2364822  )
        11           O   tau(  11) = (   0.2616659   0.7504378   0.2546465  )
        12           O   tau(  12) = (   0.7472921   0.7589987   0.2302863  )
        13           O   tau(  13) = (   0.2361659   0.2441142   0.7420844  )
        14           O   tau(  14) = (   0.7671891   0.2332310   0.7582988  )
        15           O   tau(  15) = (   0.2707671   0.7464719   0.7525344  )
        16           O   tau(  16) = (   0.7479525   0.7665682   0.7716787  )
        17           H   tau(  17) = (   0.1381711   0.1548183   0.1665577  )
        18           H   tau(  18) = (   0.6608675   0.1328171   0.1433057  )
        19           H   tau(  19) = (   0.1652602   0.6726219   0.1444312  )
        20           H   tau(  20) = (   0.5960363   0.5898997   0.0814680  )
        21           H   tau(  21) = (   0.0633507   0.0702962   0.5704655  )
        22           H   tau(  22) = (   0.6794783   0.1141089   0.6708976  )
        23           H   tau(  23) = (   0.1876134   0.6354235   0.6751896  )
        24           H   tau(  24) = (   0.6554144   0.6523017   0.7149770  )
        25           H   tau(  25) = (   0.0543519   0.3932964   0.4206344  )
        26           H   tau(  26) = (   0.5930191   0.4019496   0.3819900  )
        27           H   tau(  27) = (   0.0987231   0.8833134   0.3880129  )
        28           H   tau(  28) = (   0.6687367   0.8615982   0.3356477  )
        29           H   tau(  29) = (   0.1306718   0.3284273   0.8298249  )
        30           H   tau(  30) = (   0.6022685   0.3822996   0.9168522  )
        31           H   tau(  31) = (   0.0936132   0.9047932   0.9013049  )
        32           H   tau(  32) = (   0.5831488   0.9199008   0.8901319  )
        33           H   tau(  33) = (   0.8185514   0.1435167   0.3367709  )
        34           H   tau(  34) = (   0.3959233   0.0941371   0.3994643  )
        35           H   tau(  35) = (   0.8326857   0.6546387   0.3327720  )
        36           H   tau(  36) = (   0.3382087   0.6469309   0.3522968  )
        37           H   tau(  37) = (   0.8637919   0.1328068   0.8501155  )
        38           H   tau(  38) = (   0.3268084   0.1592055   0.8531064  )
        39           H   tau(  39) = (   0.9004633   0.6114635   0.9491229  )
        40           H   tau(  40) = (   0.3584450   0.6430556   0.8508929  )
        41           H   tau(  41) = (   0.3249539   0.3570170   0.1654007  )
        42           H   tau(  42) = (   0.9059279   0.3833240   0.0990619  )
        43           H   tau(  43) = (   0.4079330   0.9042414   0.0928197  )
        44           H   tau(  44) = (   0.9202433   0.9068206   0.0940869  )
        45           H   tau(  45) = (   0.4036163   0.3777853   0.5669542  )
        46           H   tau(  46) = (   0.8691643   0.4239053   0.6050848  )
        47           H   tau(  47) = (   0.4153180   0.9064648   0.5789178  )
        48           H   tau(  48) = (   0.8499031   0.8041240   0.6494129  )

     number of k points=    27
                       cart. coord. in units 2pi/alat
        k(    1) = (   0.0000000   0.0000000   0.0000000), wk =   0.0740741
        k(    2) = (   0.0000000   0.0000000   0.3333333), wk =   0.0740741
        k(    3) = (   0.0000000   0.0000000   0.6666667), wk =   0.0740741
        k(    4) = (   0.0000000   0.3333333   0.0000000), wk =   0.0740741
        k(    5) = (   0.0000000   0.3333333   0.3333333), wk =   0.0740741
        k(    6) = (   0.0000000   0.3333333   0.6666667), wk =   0.0740741
        k(    7) = (   0.0000000   0.6666667   0.0000000), wk =   0.0740741
        k(    8) = (   0.0000000   0.6666667   0.3333333), wk =   0.0740741
        k(    9) = (   0.0000000   0.6666667   0.6666667), wk =   0.0740741
        k(   10) = (   0.3333333   0.0000000   0.0000000), wk =   0.0740741
        k(   11) = (   0.3333333   0.0000000   0.3333333), wk =   0.0740741
        k(   12) = (   0.3333333   0.0000000   0.6666667), wk =   0.0740741
        k(   13) = (   0.3333333   0.3333333   0.0000000), wk =   0.0740741
        k(   14) = (   0.3333333   0.3333333   0.3333333), wk =   0.0740741
        k(   15) = (   0.3333333   0.3333333   0.6666667), wk =   0.0740741
        k(   16) = (   0.3333333   0.6666667   0.0000000), wk =   0.0740741
        k(   17) = (   0.3333333   0.6666667   0.3333333), wk =   0.0740741
        k(   18) = (   0.3333333   0.6666667   0.6666667), wk =   0.0740741
        k(   19) = (   0.6666667   0.0000000   0.0000000), wk =   0.0740741
        k(   20) = (   0.6666667   0.0000000   0.3333333), wk =   0.0740741
        k(   21) = (   0.6666667   0.0000000   0.6666667), wk =   0.0740741
        k(   22) = (   0.6666667   0.3333333   0.0000000), wk =   0.0740741
        k(   23) = (   0.6666667   0.3333333   0.3333333), wk =   0.0740741
        k(   24) = (   0.6666667   0.3333333   0.6666667), wk =   0.0740741
        k(   25) = (   0.6666667   0.6666667   0.0000000), wk =   0.0740741
        k(   26) = (   0.6666667   0.6666667   0.3333333), wk =   0.0740741
        k(   27) = (   0.6666667   0.6666667   0.6666667), wk =   0.0740741

     Dense  grid:   374709 G-vectors     FFT dimensions: (  90,  90,  90)

     Estimated max dynamical RAM per process >      26.34 MB

     Estimated total dynamical RAM >     526.78 MB

     The potential is recalculated from file :
     out/h2o.save/charge-density

     Starting wfcs are random

     Band Structure Calculation
     Davidson diagonalization with overlap

     ethr =  7.81E-11,  avg # of iterations = 28.6

     total cpu time spent up to now is       73.9 secs

     End of band structure calculation

          k = 0.0000 0.0000 0.0000 ( 46897 PWs)   bands (ev):

   -18.1745 -16.9199 -16.7127 -16.5984 -16.4736 -16.3444 -16.2564 -16.0646
   -16.0234 -15.8944 -15.8733 -15.7743 -15.7293 -15.5879 -15.2461 -14.7000
    -5.7286  -5.5765  -5.5239  -5.4158  -5.2267  -4.8721  -4.7114  -4.5566
    -4.4341  -3.9854  -3.8521  -3.7158  -3.5991  -3.5325  -3.5167  -3.2182
    -3.0758  -1.7825  -1.4482  -1.4111  -1.3159  -1.0900  -0.6940  -0.6249
    -0.5506  -0.3676  -0.1993  -0.1529  -0.0776   0.0340   0.1968   0.3207
     0.4300   0.9121   1.1085   1.3204   1.4533   1.6718   1.7015   1.7451
     1.8292   2.0419   2.2072   2.2411   2.2907   2.4945   2.5354   2.5888

          k = 0.0000 0.0000 0.3333 ( 46909 PWs)   bands (ev):

   -17.9872 -17.3352 -16.7475 -16.5640 -16.5047 -16.2985 -16.1253 -16.0763
   -16.0062 -15.9454 -15.8480 -15.7735 -15.5921 -15.4112 -15.3363 -14.8591
    -5.4894  -5.3322  -5.2795  -5.2285  -5.0063  -4.8775  -4.7672  -4.5158
    -4.4577  -4.2934  -4.1082  -3.9857  -3.8294  -3.6361  -3.5029  -3.3634
    -2.8948  -2.1182  -1.7229  -1.3403  -1.1466  -1.0052  -0.8709  -0.6409
    -0.5551  -0.4233  -0.2598  -0.2138  -0.1065   0.1273   0.5645   0.6950
     0.8766   1.1991   1.2770   1.4103   1.4561   1.5864   1.6640   1.7411
     1.7845   1.9132   1.9613   2.0099   2.1099   2.1732   2.3150   2.4136

          k = 0.0000 0.0000 0.6667 ( 46909 PWs)   bands (ev):

   -17.9872 -17.3352 -16.7475 -16.5640 -16.5047 -16.2985 -16.1253 -16.0763
   -16.0062 -15.9454 -15.8480 -15.7735 -15.5921 -15.4112 -15.3363 -14.8591
    -5.4894  -5.3322  -5.2795  -5.2285  -5.0063  -4.8775  -4.7672  -4.5158
    -4.4577  -4.2934  -4.1082  -3.9857  -3.8294  -3.6361  -3.5029  -3.3634
    -2.8948  -2.1182  -1.7229  -1.3403  -1.1466  -1.0052  -0.8709  -0.6409
    -0.5551  -0.4233  -0.2598  -0.2138  -0.1065   0.1273   0.5645   0.6950
     0.8766   1.1991   1.2770   1.4103   1.4561   1.5864   1.6640   1.7411
     1.7845   1.9132   1.9613   2.0099   2.1099   2.1732   2.3150   2.4136

          k = 0.0000 0.3333 0.0000 ( 46909 PWs)   bands (ev):

   -17.9817 -17.3284 -16.7583 -16.5781 -16.4378 -16.3263 -16.2424 -16.1173
   -15.9976 -15.8853 -15.7962 -15.7156 -15.6419 -15.4510 -15.2889 -14.8596
    -5.6282  -5.3457  -5.2644  -5.1285  -5.0068  -4.8305  -4.8013  -4.7080
    -4.4548  -4.2024  -4.0575  -3.8504  -3.6636  -3.6237  -3.5285  -3.2563
    -3.0197  -2.4185  -1.8242  -1.4368  -1.2600  -0.8648  -0.7929  -0.5724
    -0.4434  -0.2869  -0.2415  -0.0629   0.0442   0.1075   0.1627   0.7119
     0.8160   1.1025   1.2210   1.4034   1.4288   1.5380   1.6496   1.7150
     1.8908   1.9460   1.9827   2.0310   2.1397   2.2444   2.3455   2.4146

          k = 0.0000 0.3333 0.3333 ( 46844 PWs)   bands (ev):

   -17.8118 -17.3023 -17.0005 -16.7656 -16.5249 -16.3826 -16.1770 -16.0456
   -15.9584 -15.8745 -15.7288 -15.6520 -15.5168 -15.4160 -15.2947 -14.9776
    -5.4519  -5.2419  -5.0870  -4.9953  -4.8979  -4.8508  -4.8077  -4.5841
    -4.4788  -4.3028  -4.1096  -3.9920  -3.7721  -3.7301  -3.5310  -3.4373
    -2.6875  -2.2002  -1.9126  -1.6461  -1.4900  -1.2868  -1.0952  -0.8098
    -0.4475  -0.2973  -0.2177  -0.1096   0.0974   0.2367   0.5246   0.6660
     0.8819   1.0858   1.2373   1.3455   1.4150   1.5837   1.7031   1.7654
     1.8542   1.9270   2.0386   2.1007   2.1321   2.1944   2.2899   2.4606

          k = 0.0000 0.3333 0.6667 ( 46844 PWs)   bands (ev):

   -17.8093 -17.2845 -17.0711 -16.6854 -16.5408 -16.3929 -16.1900 -16.0324
   -15.9693 -15.8818 -15.7021 -15.6367 -15.5121 -15.4275 -15.3281 -14.9651
    -5.4488  -5.2506  -5.1427  -5.0953  -4.8497  -4.7710  -4.6826  -4.6064
    -4.3962  -4.2581  -4.1165  -4.0558  -3.9262  -3.8170  -3.5439  -3.3841
    -2.6332  -2.1886  -1.8670  -1.5949  -1.4666  -1.4123  -0.9878  -0.8630
    -0.5283  -0.3366  -0.2258  -0.0371   0.1186   0.2233   0.3818   0.8659
     0.9445   1.1258   1.1717   1.3393   1.4680   1.5366   1.6624   1.7269
     1.8431   1.9253   1.9879   2.0607   2.0832   2.2522   2.3538   2.4817

          k = 0.0000 0.6667 0.0000 ( 46909 PWs)   bands (ev):

   -17.9817 -17.3284 -16.7583 -16.5781 -16.4378 -16.3263 -16.2424 -16.1173
   -15.9976 -15.8853 -15.7962 -15.7156 -15.6419 -15.4510 -15.2889 -14.8596
    -5.6282  -5.3457  -5.2644  -5.1285  -5.0068  -4.8305  -4.8013  -4.7080
    -4.4548  -4.2024  -4.0575  -3.8504  -3.6636  -3.6237  -3.5285  -3.2563
    -3.0197  -2.4185  -1.8242  -1.4368  -1.2600  -0.8648  -0.7929  -0.5724
    -0.4434  -0.2869  -0.2415  -0.0629   0.0442   0.1075   0.1627   0.7119
     0.8160   1.1025   1.2210   1.4034   1.4288   1.5380   1.6496   1.7150
     1.8908   1.9460   1.9827   2.0310   2.1397   2.2444   2.3455   2.4146

          k = 0.0000 0.6667 0.3333 ( 46844 PWs)   bands (ev):

   -17.8093 -17.2845 -17.0711 -16.6854 -16.5408 -16.3929 -16.1900 -16.0324
   -15.9693 -15.8818 -15.7021 -15.6367 -15.5121 -15.4275 -15.3281 -14.9651
    -5.4488  -5.2506  -5.1427  -5.0953  -4.8497  -4.7710  -4.6826  -4.6064
    -4.3962  -4.2581  -4.1165  -4.0558  -3.9262  -3.8170  -3.5439  -3.3841
    -2.6332  -2.1886  -1.8670  -1.5949  -1.4666  -1.4123  -0.9878  -0.8630
    -0.5283  -0.3366  -0.2258  -0.0371   0.1186   0.2233   0.3818   0.8659
     0.9445   1.1258   1.1717   1.3393   1.4680   1.5366   1.6624   1.7269
     1.8431   1.9253   1.9879   2.0607   2.0832   2.2522   2.3538   2.4817

          k = 0.0000 0.6667 0.6667 ( 46844 PWs)   bands (ev):

   -17.8118 -17.3023 -17.0005 -16.7656 -16.5249 -16.3826 -16.1770 -16.0456
   -15.9584 -15.8745 -15.7288 -15.6520 -15.5168 -15.4160 -15.2947 -14.9776
    -5.4519  -5.2419  -5.0870  -4.9953  -4.8979  -4.8508  -4.8077  -4.5841
    -4.4788  -4.3028  -4.1096  -3.9920  -3.7721  -3.7301  -3.5310  -3.4373
    -2.6875  -2.2002  -1.9126  -1.6461  -1.4900  -1.2868  -1.0952  -0.8098
    -0.4475  -0.2973  -0.2177  -0.1096   0.0974   0.2367   0.5246   0.6660
     0.8819   1.0858   1.2373   1.3455   1.4150   1.5837   1.7031   1.7654
     1.8542   1.9270   2.0386   2.1007   2.1321   2.1944   2.2899   2.4606

          k = 0.3333 0.0000 0.0000 ( 46909 PWs)   bands (ev):

   -17.9770 -17.3501 -16.8060 -16.5526 -16.4341 -16.2470 -16.1495 -16.0564
   -16.0228 -16.0011 -15.8792 -15.7715 -15.5945 -15.3976 -15.3019 -14.8658
    -5.5205  -5.4140  -5.3049  -5.2004  -4.9588  -4.9025  -4.7664  -4.5989
    -4.3725  -4.2014  -4.0725  -3.9882  -3.7845  -3.6350  -3.5410  -3.3901
    -2.8891  -2.1856  -1.7569  -1.3860  -1.1038  -0.9721  -0.8271  -0.6544
    -0.5294  -0.4398  -0.3660  -0.1281   0.0271   0.1786   0.5161   0.6825
     0.7932   1.1647   1.3403   1.3858   1.4466   1.5492   1.6224   1.7482
     1.8575   1.8972   1.9727   2.0370   2.1059   2.1884   2.3120   2.3866

          k = 0.3333 0.0000 0.3333 ( 46844 PWs)   bands (ev):

   -17.8071 -17.2777 -17.1100 -16.7495 -16.4488 -16.2959 -16.1936 -16.0541
   -15.9966 -15.8625 -15.7860 -15.6258 -15.5515 -15.4153 -15.2761 -14.9794
    -5.4072  -5.2763  -5.1425  -5.0846  -4.9506  -4.8230  -4.6332  -4.4960
    -4.3135  -4.2410  -4.1120  -4.0575  -3.9992  -3.8437  -3.6602  -3.4144
    -2.5612  -2.2984  -1.7928  -1.7361  -1.4084  -1.2981  -1.0817  -0.8371
    -0.3569  -0.2585  -0.1267  -0.0002   0.2145   0.2886   0.3958   0.6120
     0.9401   1.0403   1.0912   1.3087   1.4254   1.5371   1.6385   1.7494
     1.8312   1.9378   2.0060   2.0450   2.1310   2.3037   2.3500   2.4345

          k = 0.3333 0.0000 0.6667 ( 46844 PWs)   bands (ev):

   -17.8017 -17.2982 -17.1152 -16.7009 -16.4708 -16.3004 -16.1706 -16.0840
   -15.9804 -15.9031 -15.7794 -15.6245 -15.4975 -15.3971 -15.3402 -14.9659
    -5.3169  -5.2190  -5.1712  -5.1440  -4.9606  -4.8199  -4.7063  -4.4782
    -4.3996  -4.3662  -4.1205  -3.9993  -3.9372  -3.7545  -3.6496  -3.3942
    -2.6745  -2.0466  -1.8522  -1.6537  -1.5108  -1.3202  -1.1325  -0.8340
    -0.4557  -0.2338  -0.0684  -0.0220   0.1564   0.2248   0.4813   0.6831
     0.9905   1.0674   1.0984   1.2528   1.4059   1.4962   1.5931   1.7354
     1.8448   1.9167   2.0614   2.1245   2.1583   2.2555   2.3125   2.4551

          k = 0.3333 0.3333 0.0000 ( 46844 PWs)   bands (ev):

   -17.8023 -17.2673 -17.1070 -16.7363 -16.4774 -16.3439 -16.1741 -16.0760
   -16.0021 -15.9177 -15.7311 -15.6094 -15.4794 -15.4198 -15.3068 -14.9747
    -5.4714  -5.3220  -5.1492  -5.0726  -4.8925  -4.8033  -4.6655  -4.5375
    -4.4281  -4.2743  -4.1626  -4.0261  -3.8685  -3.6159  -3.5893  -3.3875
    -2.5840  -2.3306  -1.8485  -1.7649  -1.5277  -1.1556  -1.0801  -0.8610
    -0.4866  -0.2913  -0.1830   0.0034   0.1250   0.1990   0.4702   0.7085
     0.8357   1.0614   1.2155   1.3474   1.5139   1.6255   1.6475   1.7368
     1.8165   1.8622   1.9523   2.1074   2.2201   2.2707   2.3460   2.4038

          k = 0.3333 0.3333 0.3333 ( 46820 PWs)   bands (ev):

   -17.6534 -17.2255 -17.0217 -16.8597 -16.6640 -16.5028 -16.3868 -16.1600
   -15.9258 -15.7258 -15.6829 -15.5064 -15.4682 -15.3386 -15.2676 -15.0510
    -5.3312  -5.1742  -5.0411  -4.9019  -4.8408  -4.7225  -4.6085  -4.4924
    -4.4112  -4.2403  -4.1205  -4.0557  -3.8918  -3.8334  -3.7451  -3.5806
    -2.4264  -2.2839  -2.0840  -1.9227  -1.7535  -1.5517  -1.3905  -1.2001
    -0.1926  -0.1004   0.0314   0.1582   0.2656   0.3432   0.5129   0.7286
     0.9316   1.0894   1.2540   1.3488   1.4730   1.5724   1.6098   1.7512
     1.8166   1.8830   1.9605   2.0603   2.0919   2.1751   2.2636   2.3410

          k = 0.3333 0.3333 0.6667 ( 46820 PWs)   bands (ev):

   -17.6407 -17.2454 -17.0213 -16.9222 -16.5865 -16.4494 -16.3707 -16.2523
   -15.9222 -15.7219 -15.6524 -15.5205 -15.4283 -15.3801 -15.3034 -15.0231
    -5.2636  -5.2011  -5.0487  -4.9873  -4.8379  -4.6845  -4.5637  -4.4900
    -4.3895  -4.3150  -4.1121  -4.0521  -3.9547  -3.8383  -3.7876  -3.4554
    -2.4558  -2.2339  -2.0365  -1.9180  -1.7043  -1.6236  -1.4377  -1.2513
    -0.2023  -0.0549   0.0951   0.1682   0.2431   0.3209   0.4591   0.7122
     0.9342   1.1394   1.2308   1.3997   1.4235   1.5396   1.6762   1.7286
     1.8478   1.8549   1.9285   2.0693   2.1107   2.2051   2.2344   2.3455

          k = 0.3333 0.6667 0.0000 ( 46844 PWs)   bands (ev):

   -17.7945 -17.3002 -17.1027 -16.6834 -16.4456 -16.3976 -16.2133 -16.1166
   -15.9529 -15.8839 -15.7118 -15.6170 -15.5346 -15.3994 -15.2885 -14.9836
    -5.4586  -5.2617  -5.1877  -5.0764  -4.9192  -4.8319  -4.6589  -4.6139
    -4.4046  -4.1670  -4.0713  -3.9735  -3.8554  -3.7997  -3.6062  -3.4553
    -2.6989  -2.0475  -1.8715  -1.6746  -1.5721  -1.3340  -1.0863  -0.7560
    -0.5153  -0.2885  -0.2396   0.0140   0.1136   0.2447   0.3991   0.8249
     0.9820   1.0638   1.1496   1.3009   1.4265   1.5950   1.6725   1.7075
     1.8048   1.9347   2.0040   2.0940   2.1695   2.2394   2.3090   2.4544

          k = 0.3333 0.6667 0.3333 ( 46820 PWs)   bands (ev):

   -17.6410 -17.2412 -17.0604 -16.8221 -16.6376 -16.5348 -16.4011 -16.1316
   -15.8496 -15.7972 -15.6797 -15.5095 -15.4816 -15.3678 -15.2292 -15.0560
    -5.3254  -5.1352  -5.0733  -4.9617  -4.8184  -4.7057  -4.6383  -4.4936
    -4.3276  -4.1920  -4.1020  -4.0751  -3.9479  -3.8577  -3.7335  -3.6411
    -2.4990  -2.2644  -1.9688  -1.8107  -1.6910  -1.5720  -1.5086  -1.2648
    -0.1890  -0.0975   0.0406   0.1753   0.2375   0.3354   0.4216   0.7968
     0.9871   1.1317   1.2379   1.3534   1.4096   1.5643   1.6461   1.7042
     1.7485   1.9055   1.9940   2.0287   2.0901   2.1938   2.2755   2.3851

          k = 0.3333 0.6667 0.6667 ( 46820 PWs)   bands (ev):

   -17.6370 -17.2584 -17.0721 -16.7905 -16.6293 -16.4993 -16.4119 -16.1771
   -15.9021 -15.7890 -15.6415 -15.5332 -15.3981 -15.3703 -15.2910 -15.0395
    -5.3030  -5.1370  -5.0429  -4.9565  -4.8758  -4.7610  -4.6155  -4.4771
    -4.4104  -4.2362  -4.1168  -4.0191  -3.8919  -3.8146  -3.7530  -3.5263
    -2.6156  -2.2060  -1.9468  -1.8865  -1.7583  -1.5676  -1.5111  -1.2091
    -0.1803  -0.0597   0.0539   0.2021   0.2176   0.3259   0.4437   0.7195
     1.0301   1.1227   1.2326   1.3689   1.4685   1.5156   1.5612   1.7502
     1.8227   1.8451   1.9823   2.0624   2.1078   2.1622   2.2596   2.3912

          k = 0.6667 0.0000 0.0000 ( 46909 PWs)   bands (ev):

   -17.9770 -17.3501 -16.8060 -16.5526 -16.4341 -16.2470 -16.1495 -16.0564
   -16.0228 -16.0011 -15.8792 -15.7715 -15.5945 -15.3976 -15.3019 -14.8658
    -5.5205  -5.4140  -5.3049  -5.2004  -4.9588  -4.9025  -4.7664  -4.5989
    -4.3725  -4.2014  -4.0725  -3.9882  -3.7845  -3.6350  -3.5410  -3.3901
    -2.8891  -2.1856  -1.7569  -1.3860  -1.1038  -0.9721  -0.8271  -0.6544
    -0.5294  -0.4398  -0.3660  -0.1281   0.0271   0.1786   0.5161   0.6825
     0.7932   1.1647   1.3403   1.3858   1.4466   1.5492   1.6224   1.7482
     1.8575   1.8972   1.9727   2.0370   2.1059   2.1884   2.3120   2.3866

          k = 0.6667 0.0000 0.3333 ( 46844 PWs)   bands (ev):

   -17.8017 -17.2982 -17.1152 -16.7009 -16.4708 -16.3004 -16.1706 -16.0840
   -15.9804 -15.9031 -15.7794 -15.6245 -15.4975 -15.3971 -15.3402 -14.9659
    -5.3169  -5.2190  -5.1712  -5.1440  -4.9606  -4.8199  -4.7063  -4.4782
    -4.3996  -4.3662  -4.1205  -3.9993  -3.9372  -3.7545  -3.6496  -3.3942
    -2.6745  -2.0466  -1.8522  -1.6537  -1.5108  -1.3202  -1.1325  -0.8340
    -0.4557  -0.2338  -0.0684  -0.0220   0.1564   0.2248   0.4813   0.6831
     0.9905   1.0674   1.0984   1.2528   1.4059   1.4962   1.5931   1.7354
     1.8448   1.9167   2.0614   2.1245   2.1583   2.2555   2.3125   2.4551

          k = 0.6667 0.0000 0.6667 ( 46844 PWs)   bands (ev):

   -17.8071 -17.2777 -17.1100 -16.7495 -16.4488 -16.2959 -16.1936 -16.0541
   -15.9966 -15.8625 -15.7860 -15.6258 -15.5515 -15.4153 -15.2761 -14.9794
    -5.4072  -5.2763  -5.1425  -5.0846  -4.9506  -4.8230  -4.6332  -4.4960
    -4.3135  -4.2410  -4.1120  -4.0575  -3.9992  -3.8437  -3.6602  -3.4144
    -2.5612  -2.2984  -1.7928  -1.7361  -1.4084  -1.2981  -1.0817  -0.8371
    -0.3569  -0.2585  -0.1267  -0.0002   0.2145   0.2886   0.3958   0.6120
     0.9401   1.0403   1.0912   1.3087   1.4254   1.5371   1.6385   1.7494
     1.8312   1.9378   2.0060   2.0450   2.1310   2.3037   2.3500   2.4345

          k = 0.6667 0.3333 0.0000 ( 46844 PWs)   bands (ev):

   -17.7945 -17.3002 -17.1027 -16.6834 -16.4456 -16.3976 -16.2133 -16.1166
   -15.9529 -15.8839 -15.7118 -15.6170 -15.5346 -15.3994 -15.2885 -14.9836
    -5.4586  -5.2617  -5.1877  -5.0764  -4.9192  -4.8319  -4.6589  -4.6139
    -4.4046  -4.1670  -4.0713  -3.9735  -3.8554  -3.7997  -3.6062  -3.4553
    -2.6989  -2.0475  -1.8715  -1.6746  -1.5721  -1.3340  -1.0863  -0.7560
    -0.5153  -0.2885  -0.2396   0.0140   0.1136   0.2447   0.3991   0.8249
     0.9820   1.0638   1.1496   1.3009   1.4265   1.5950   1.6725   1.7075
     1.8048   1.9347   2.0040   2.0940   2.1695   2.2394   2.3090   2.4544

          k = 0.6667 0.3333 0.3333 ( 46820 PWs)   bands (ev):

   -17.6370 -17.2584 -17.0721 -16.7905 -16.6293 -16.4993 -16.4119 -16.1771
   -15.9021 -15.7890 -15.6415 -15.5332 -15.3981 -15.3703 -15.2910 -15.0395
    -5.3030  -5.1370  -5.0429  -4.9565  -4.8758  -4.7610  -4.6155  -4.4771
    -4.4104  -4.2362  -4.1168  -4.0191  -3.8919  -3.8146  -3.7530  -3.5263
    -2.6156  -2.2060  -1.9468  -1.8865  -1.7583  -1.5676  -1.5111  -1.2091
    -0.1803  -0.0597   0.0539   0.2021   0.2176   0.3259   0.4437   0.7195
     1.0301   1.1227   1.2326   1.3689   1.4685   1.5156   1.5612   1.7502
     1.8227   1.8451   1.9823   2.0624   2.1078   2.1622   2.2596   2.3912

          k = 0.6667 0.3333 0.6667 ( 46820 PWs)   bands (ev):

   -17.6410 -17.2412 -17.0604 -16.8221 -16.6376 -16.5348 -16.4011 -16.1316
   -15.8496 -15.7972 -15.6797 -15.5095 -15.4816 -15.3678 -15.2292 -15.0560
    -5.3254  -5.1352  -5.0733  -4.9617  -4.8184  -4.7057  -4.6383  -4.4936
    -4.3276  -4.1920  -4.1020  -4.0751  -3.9479  -3.8577  -3.7335  -3.6411
    -2.4990  -2.2644  -1.9688  -1.8107  -1.6910  -1.5720  -1.5086  -1.2648
    -0.1890  -0.0975   0.0406   0.1753   0.2375   0.3354   0.4216   0.7968
     0.9871   1.1317   1.2379   1.3534   1.4096   1.5643   1.6461   1.7042
     1.7485   1.9055   1.9940   2.0287   2.0901   2.1938   2.2755   2.3851

          k = 0.6667 0.6667 0.0000 ( 46844 PWs)   bands (ev):

   -17.8023 -17.2673 -17.1070 -16.7363 -16.4774 -16.3439 -16.1741 -16.0760
   -16.0021 -15.9177 -15.7311 -15.6094 -15.4794 -15.4198 -15.3068 -14.9747
    -5.4714  -5.3220  -5.1492  -5.0726  -4.8925  -4.8033  -4.6655  -4.5375
    -4.4281  -4.2743  -4.1626  -4.0261  -3.8685  -3.6159  -3.5893  -3.3875
    -2.5840  -2.3306  -1.8485  -1.7649  -1.5277  -1.1556  -1.0801  -0.8610
    -0.4866  -0.2913  -0.1830   0.0034   0.1250   0.1990   0.4702   0.7085
     0.8357   1.0614   1.2155   1.3474   1.5139   1.6255   1.6475   1.7368
     1.8165   1.8622   1.9523   2.1074   2.2201   2.2707   2.3460   2.4038

          k = 0.6667 0.6667 0.3333 ( 46820 PWs)   bands (ev):

   -17.6407 -17.2454 -17.0213 -16.9222 -16.5865 -16.4494 -16.3707 -16.2523
   -15.9222 -15.7219 -15.6524 -15.5205 -15.4283 -15.3801 -15.3034 -15.0231
    -5.2636  -5.2011  -5.0487  -4.9873  -4.8379  -4.6845  -4.5637  -4.4900
    -4.3895  -4.3150  -4.1121  -4.0521  -3.9547  -3.8383  -3.7876  -3.4554
    -2.4558  -2.2339  -2.0365  -1.9180  -1.7043  -1.6236  -1.4377  -1.2513
    -0.2023  -0.0549   0.0951   0.1682   0.2431   0.3209   0.4591   0.7122
     0.9342   1.1394   1.2308   1.3997   1.4235   1.5396   1.6762   1.7286
     1.8478   1.8549   1.9285   2.0693   2.1107   2.2051   2.2344   2.3455

          k = 0.6667 0.6667 0.6667 ( 46820 PWs)   bands (ev):

   -17.6534 -17.2255 -17.0217 -16.8597 -16.6640 -16.5028 -16.3868 -16.1600
   -15.9258 -15.7258 -15.6829 -15.5064 -15.4682 -15.3386 -15.2676 -15.0510
    -5.3312  -5.1742  -5.0411  -4.9019  -4.8408  -4.7225  -4.6085  -4.4924
    -4.4112  -4.2403  -4.1205  -4.0557  -3.8918  -3.8334  -3.7451  -3.5806
    -2.4264  -2.2839  -2.0840  -1.9227  -1.7535  -1.5517  -1.3905  -1.2001
    -0.1926  -0.1004   0.0314   0.1582   0.2656   0.3432   0.5129   0.7286
     0.9316   1.0894   1.2540   1.3488   1.4730   1.5724   1.6098   1.7512
     1.8166   1.8830   1.9605   2.0603   2.0919   2.1751   2.2636   2.3410

     highest occupied level (ev):     2.5888

     Writing output data file out/h2o.save/
 
     init_run     :      0.13s CPU      0.15s WALL (       1 calls)
     electrons    :     72.34s CPU     73.59s WALL (       1 calls)

     Called by init_run:
     wfcinit      :      0.00s CPU      0.00s WALL (       1 calls)
     potinit      :      0.03s CPU      0.04s WALL (       1 calls)
     hinit0       :      0.02s CPU      0.02s WALL (       1 calls)

     Called by electrons:
     c_bands      :     72.34s CPU     73.59s WALL (       1 calls)
     v_of_rho     :      0.02s CPU      0.03s WALL (       1 calls)

     Called by c_bands:
     init_us_2    :      0.10s CPU      0.10s WALL (      27 calls)
     cegterg      :     69.44s CPU     70.56s WALL (      54 calls)

     Called by *egterg:
     cdiaghg      :      5.19s CPU      5.26s WALL (     800 calls)
     h_psi        :     48.26s CPU     49.30s WALL (     854 calls)
     g_psi        :      0.43s CPU      0.43s WALL (     773 calls)

     Called by h_psi:
     h_psi:calbec :      4.18s CPU      4.22s WALL (     854 calls)
     vloc_psi     :     38.78s CPU     39.74s WALL (     854 calls)
     add_vuspsi   :      4.20s CPU      4.23s WALL (     854 calls)

     General routines
     calbec       :      4.17s CPU      4.22s WALL (     854 calls)
     fft          :      0.01s CPU      0.01s WALL (      10 calls)
     fftw         :     33.81s CPU     34.65s WALL (   93164 calls)
     davcio       :      0.01s CPU      0.11s WALL (      54 calls)
 
     Parallel routines
     fft_scatt_xy :      5.24s CPU      5.37s WALL (   93174 calls)
     fft_scatt_yz :     10.73s CPU     11.00s WALL (   93174 calls)
 
     PWSCF        :   1m13.66s CPU   1m15.84s WALL

 
   This run was terminated on:   2:12: 8  25Jun2022            

=------------------------------------------------------------------------------=
   JOB DONE.
=------------------------------------------------------------------------------=
