
     Program PWSCF v.6.7MaX starts on 25Jun2022 at  2: 9:42 

     This program is part of the open-source Quantum ESPRESSO suite
     for quantum simulation of materials; please cite
         "P. Giannozzi et al., J. Phys.:Condens. Matter 21 395502 (2009);
         "P. Giannozzi et al., J. Phys.:Condens. Matter 29 465901 (2017);
          URL http://www.quantum-espresso.org", 
     in publications or presentations arising from this work. More details at
     http://www.quantum-espresso.org/quote

     Parallel version (MPI), running on    20 processors

     MPI processes distributed on     1 nodes
     R & G space division:  proc/nbgrp/npool/nimage =      20
     Reading input from scf.in
Warning: card  &CELL ignored
Warning: card  / ignored

     Current dimensions of program PWSCF are:
     Max number of different atomic species (ntypx) = 10
     Max number of k-points (npk) =  40000
     Max angular momentum in pseudopotentials (lmaxx) =  3
     Message from routine read_pp_mesh:
     mesh size missing, using the one in header
     Message from routine read_pp_mesh:
     mesh size missing, using the one in header

     IMPORTANT: XC functional enforced from input :
     Exchange-correlation= PBE
                           (   1   4   3   4   0   0   0)
     Any further DFT definition will be discarded
     Please, verify this is what you really want


     Subspace diagonalization in iterative solution of the eigenvalue problem:
     a serial algorithm will be used

 
     Parallelization info
     --------------------
     sticks:   dense  smooth     PW     G-vecs:    dense   smooth      PW
     Min         314     314     82                18735    18735    2532
     Max         317     317     83                18736    18736    2537
     Sum        6293    6293   1649               374709   374709   50685
 

     Title: 
      Water 16 molecules                                                        


     bravais-lattice index     =            0
     lattice parameter (alat)  =      11.4740  a.u.
     unit-cell volume          =    1510.5751 (a.u.)^3
     number of atoms/cell      =           48
     number of atomic types    =            2
     number of electrons       =       128.00
     number of Kohn-Sham states=           64
     kinetic-energy cutoff     =     150.0000  Ry
     charge density cutoff     =     600.0000  Ry
     scf convergence threshold =      1.0E-07
     mixing beta               =       0.7000
     number of iterations used =            8  plain     mixing
     Exchange-correlation= PBE
                           (   1   4   3   4   0   0   0)

     celldm(1)=  11.473981  celldm(2)=   0.000000  celldm(3)=   0.000000
     celldm(4)=   0.000000  celldm(5)=   0.000000  celldm(6)=   0.000000

     crystal axes: (cart. coord. in units of alat)
               a(1) = (   1.000000   0.000000   0.000000 )  
               a(2) = (   0.000000   1.000000   0.000000 )  
               a(3) = (   0.000000   0.000000   1.000000 )  

     reciprocal axes: (cart. coord. in units 2 pi/alat)
               b(1) = (  1.000000  0.000000  0.000000 )  
               b(2) = (  0.000000  1.000000  0.000000 )  
               b(3) = (  0.000000  0.000000  1.000000 )  


     PseudoPot. # 1 for O  read from file:
     ../O_ONCV_PBE-1.2.upf
     MD5 check sum: e36c48deb68f4e355fffe4602be2c42c
     Pseudo is Norm-conserving, Zval =  6.0
     Generated using ONCVPSP code by D. R. Hamann
     Using radial grid of  602 points,  4 beta functions with: 
                l(1) =   0
                l(2) =   0
                l(3) =   1
                l(4) =   1

     PseudoPot. # 2 for H  read from file:
     ../H_ONCV_PBE-1.2.upf
     MD5 check sum: bf21e08b90ac4ce7d0149ac4e8138190
     Pseudo is Norm-conserving, Zval =  1.0
     Generated using ONCVPSP code by D. R. Hamann
     Using radial grid of  602 points,  2 beta functions with: 
                l(1) =   0
                l(2) =   0

     atomic species   valence    mass     pseudopotential
        O              6.00    16.00000     O ( 1.00)
        H              1.00     1.00000     H ( 1.00)

     No symmetry found



   Cartesian axes

     site n.     atom                  positions (alat units)
         1           O   tau(   1) = (   0.0225511   0.9999680   0.0129475  )
         2           O   tau(   2) = (   0.4918410   0.0016409   0.9984792  )
         3           O   tau(   3) = (   0.9957683   0.5029070   0.0202557  )
         4           O   tau(   4) = (   0.5073620   0.4969614   0.9870476  )
         5           O   tau(   5) = (   0.9891195   0.9763884   0.4707467  )
         6           O   tau(   6) = (   0.5099000   0.0162406   0.5017245  )
         7           O   tau(   7) = (   0.9765828   0.5019204   0.5036843  )
         8           O   tau(   8) = (   0.5033615   0.4840014   0.4910472  )
         9           O   tau(   9) = (   0.2358827   0.2488673   0.2670169  )
        10           O   tau(  10) = (   0.7487003   0.2400594   0.2364822  )
        11           O   tau(  11) = (   0.2616659   0.7504378   0.2546465  )
        12           O   tau(  12) = (   0.7472921   0.7589987   0.2302863  )
        13           O   tau(  13) = (   0.2361659   0.2441142   0.7420844  )
        14           O   tau(  14) = (   0.7671891   0.2332310   0.7582988  )
        15           O   tau(  15) = (   0.2707671   0.7464719   0.7525344  )
        16           O   tau(  16) = (   0.7479525   0.7665682   0.7716787  )
        17           H   tau(  17) = (   0.1381711   0.1548183   0.1665577  )
        18           H   tau(  18) = (   0.6608675   0.1328171   0.1433057  )
        19           H   tau(  19) = (   0.1652602   0.6726219   0.1444312  )
        20           H   tau(  20) = (   0.5960363   0.5898997   0.0814680  )
        21           H   tau(  21) = (   0.0633507   0.0702962   0.5704655  )
        22           H   tau(  22) = (   0.6794783   0.1141089   0.6708976  )
        23           H   tau(  23) = (   0.1876134   0.6354235   0.6751896  )
        24           H   tau(  24) = (   0.6554144   0.6523017   0.7149770  )
        25           H   tau(  25) = (   0.0543519   0.3932964   0.4206344  )
        26           H   tau(  26) = (   0.5930191   0.4019496   0.3819900  )
        27           H   tau(  27) = (   0.0987231   0.8833134   0.3880129  )
        28           H   tau(  28) = (   0.6687367   0.8615982   0.3356477  )
        29           H   tau(  29) = (   0.1306718   0.3284273   0.8298249  )
        30           H   tau(  30) = (   0.6022685   0.3822996   0.9168522  )
        31           H   tau(  31) = (   0.0936132   0.9047932   0.9013049  )
        32           H   tau(  32) = (   0.5831488   0.9199008   0.8901319  )
        33           H   tau(  33) = (   0.8185514   0.1435167   0.3367709  )
        34           H   tau(  34) = (   0.3959233   0.0941371   0.3994643  )
        35           H   tau(  35) = (   0.8326857   0.6546387   0.3327720  )
        36           H   tau(  36) = (   0.3382087   0.6469309   0.3522968  )
        37           H   tau(  37) = (   0.8637919   0.1328068   0.8501155  )
        38           H   tau(  38) = (   0.3268084   0.1592055   0.8531064  )
        39           H   tau(  39) = (   0.9004633   0.6114635   0.9491229  )
        40           H   tau(  40) = (   0.3584450   0.6430556   0.8508929  )
        41           H   tau(  41) = (   0.3249539   0.3570170   0.1654007  )
        42           H   tau(  42) = (   0.9059279   0.3833240   0.0990619  )
        43           H   tau(  43) = (   0.4079330   0.9042414   0.0928197  )
        44           H   tau(  44) = (   0.9202433   0.9068206   0.0940869  )
        45           H   tau(  45) = (   0.4036163   0.3777853   0.5669542  )
        46           H   tau(  46) = (   0.8691643   0.4239053   0.6050848  )
        47           H   tau(  47) = (   0.4153180   0.9064648   0.5789178  )
        48           H   tau(  48) = (   0.8499031   0.8041240   0.6494129  )

     number of k points=    14
                       cart. coord. in units 2pi/alat
        k(    1) = (   0.0000000   0.0000000   0.0000000), wk =   0.0740741
        k(    2) = (   0.0000000   0.0000000   0.3333333), wk =   0.1481481
        k(    3) = (   0.0000000   0.3333333   0.0000000), wk =   0.1481481
        k(    4) = (   0.0000000   0.3333333   0.3333333), wk =   0.1481481
        k(    5) = (   0.0000000   0.3333333  -0.3333333), wk =   0.1481481
        k(    6) = (   0.3333333   0.0000000   0.0000000), wk =   0.1481481
        k(    7) = (   0.3333333   0.0000000   0.3333333), wk =   0.1481481
        k(    8) = (   0.3333333   0.0000000  -0.3333333), wk =   0.1481481
        k(    9) = (   0.3333333   0.3333333   0.0000000), wk =   0.1481481
        k(   10) = (   0.3333333   0.3333333   0.3333333), wk =   0.1481481
        k(   11) = (   0.3333333   0.3333333  -0.3333333), wk =   0.1481481
        k(   12) = (   0.3333333  -0.3333333   0.0000000), wk =   0.1481481
        k(   13) = (   0.3333333  -0.3333333   0.3333333), wk =   0.1481481
        k(   14) = (   0.3333333  -0.3333333  -0.3333333), wk =   0.1481481

     Dense  grid:   374709 G-vectors     FFT dimensions: (  90,  90,  90)

     Estimated max dynamical RAM per process >      63.54 MB

     Estimated total dynamical RAM >       1.24 GB

     Initial potential from superposition of free atoms

     starting charge  127.91649, renormalised to  128.00000
     Starting wfcs are random

     total cpu time spent up to now is        1.5 secs

     Self-consistent Calculation

     iteration #  1     ecut=   150.00 Ry     beta= 0.70
     Davidson diagonalization with overlap
     ethr =  1.00E-02,  avg # of iterations = 11.3

     total cpu time spent up to now is       13.8 secs

     total energy              =    -548.26012379 Ry
     estimated scf accuracy    <       3.31974211 Ry

     iteration #  2     ecut=   150.00 Ry     beta= 0.70
     Davidson diagonalization with overlap
     ethr =  2.59E-03,  avg # of iterations =  2.0

     total cpu time spent up to now is       18.3 secs

     total energy              =    -549.14458135 Ry
     estimated scf accuracy    <       0.57418414 Ry

     iteration #  3     ecut=   150.00 Ry     beta= 0.70
     Davidson diagonalization with overlap
     ethr =  4.49E-04,  avg # of iterations =  2.0

     total cpu time spent up to now is       22.8 secs

     total energy              =    -549.23756226 Ry
     estimated scf accuracy    <       0.01199858 Ry

     iteration #  4     ecut=   150.00 Ry     beta= 0.70
     Davidson diagonalization with overlap
     ethr =  9.37E-06,  avg # of iterations =  3.0

     total cpu time spent up to now is       28.0 secs

     total energy              =    -549.24148627 Ry
     estimated scf accuracy    <       0.00741811 Ry

     iteration #  5     ecut=   150.00 Ry     beta= 0.70
     Davidson diagonalization with overlap
     ethr =  5.80E-06,  avg # of iterations =  2.0

     total cpu time spent up to now is       31.9 secs

     total energy              =    -549.24151082 Ry
     estimated scf accuracy    <       0.00132442 Ry

     iteration #  6     ecut=   150.00 Ry     beta= 0.70
     Davidson diagonalization with overlap
     ethr =  1.03E-06,  avg # of iterations =  2.0

     total cpu time spent up to now is       36.8 secs

     total energy              =    -549.24190769 Ry
     estimated scf accuracy    <       0.00004811 Ry

     iteration #  7     ecut=   150.00 Ry     beta= 0.70
     Davidson diagonalization with overlap
     ethr =  3.76E-08,  avg # of iterations =  2.1

     total cpu time spent up to now is       41.3 secs

     total energy              =    -549.24190446 Ry
     estimated scf accuracy    <       0.00003375 Ry

     iteration #  8     ecut=   150.00 Ry     beta= 0.70
     Davidson diagonalization with overlap
     ethr =  2.64E-08,  avg # of iterations =  2.0

     total cpu time spent up to now is       45.5 secs

     total energy              =    -549.24190853 Ry
     estimated scf accuracy    <       0.00000119 Ry

     iteration #  9     ecut=   150.00 Ry     beta= 0.70
     Davidson diagonalization with overlap
     ethr =  9.29E-10,  avg # of iterations =  3.0

     total cpu time spent up to now is       50.6 secs

     total energy              =    -549.24190915 Ry
     estimated scf accuracy    <       0.00000017 Ry

     iteration # 10     ecut=   150.00 Ry     beta= 0.70
     Davidson diagonalization with overlap
     ethr =  1.34E-10,  avg # of iterations =  2.0

     total cpu time spent up to now is       54.3 secs

     End of self-consistent calculation

          k = 0.0000 0.0000 0.0000 ( 46897 PWs)   bands (ev):

   -18.1747 -16.9201 -16.7130 -16.5987 -16.4740 -16.3446 -16.2569 -16.0650
   -16.0237 -15.8948 -15.8737 -15.7748 -15.7297 -15.5885 -15.2466 -14.7004
    -5.7287  -5.5767  -5.5240  -5.4160  -5.2270  -4.8723  -4.7116  -4.5569
    -4.4344  -3.9857  -3.8524  -3.7161  -3.5994  -3.5327  -3.5170  -3.2185
    -3.0761  -1.7827  -1.4485  -1.4114  -1.3161  -1.0903  -0.6943  -0.6254
    -0.5509  -0.3679  -0.1997  -0.1534  -0.0779   0.0337   0.1963   0.3204
     0.4296   0.9117   1.1080   1.3200   1.4529   1.6713   1.7010   1.7446
     1.8288   2.0414   2.2067   2.2405   2.2902   2.4940   2.5348   2.5882

          k = 0.0000 0.0000 0.3333 ( 46909 PWs)   bands (ev):

   -17.9875 -17.3355 -16.7478 -16.5642 -16.5051 -16.2987 -16.1257 -16.0769
   -16.0065 -15.9458 -15.8483 -15.7741 -15.5926 -15.4117 -15.3367 -14.8596
    -5.4895  -5.3324  -5.2796  -5.2287  -5.0065  -4.8778  -4.7674  -4.5161
    -4.4580  -4.2937  -4.1085  -3.9859  -3.8296  -3.6364  -3.5033  -3.3636
    -2.8951  -2.1185  -1.7232  -1.3406  -1.1469  -1.0056  -0.8712  -0.6413
    -0.5555  -0.4237  -0.2602  -0.2142  -0.1069   0.1269   0.5641   0.6946
     0.8763   1.1988   1.2765   1.4100   1.4557   1.5860   1.6636   1.7407
     1.7840   1.9126   1.9609   2.0096   2.1094   2.1726   2.3145   2.4130

          k = 0.0000 0.3333 0.0000 ( 46909 PWs)   bands (ev):

   -17.9819 -17.3287 -16.7586 -16.5783 -16.4381 -16.3267 -16.2427 -16.1176
   -15.9979 -15.8858 -15.7965 -15.7160 -15.6425 -15.4515 -15.2893 -14.8601
    -5.6284  -5.3459  -5.2645  -5.1287  -5.0070  -4.8308  -4.8016  -4.7083
    -4.4551  -4.2028  -4.0578  -3.8508  -3.6638  -3.6240  -3.5287  -3.2566
    -3.0200  -2.4188  -1.8245  -1.4371  -1.2603  -0.8652  -0.7933  -0.5728
    -0.4438  -0.2873  -0.2418  -0.0634   0.0438   0.1071   0.1622   0.7115
     0.8156   1.1021   1.2205   1.4029   1.4284   1.5376   1.6491   1.7145
     1.8903   1.9457   1.9822   2.0306   2.1392   2.2439   2.3449   2.4141

          k = 0.0000 0.3333 0.3333 ( 46844 PWs)   bands (ev):

   -17.8121 -17.3026 -17.0008 -16.7659 -16.5251 -16.3828 -16.1774 -16.0459
   -15.9588 -15.8749 -15.7293 -15.6523 -15.5174 -15.4164 -15.2951 -14.9781
    -5.4520  -5.2421  -5.0871  -4.9954  -4.8981  -4.8510  -4.8079  -4.5844
    -4.4792  -4.3031  -4.1099  -3.9923  -3.7723  -3.7303  -3.5313  -3.4376
    -2.6878  -2.2005  -1.9129  -1.6465  -1.4902  -1.2871  -1.0956  -0.8102
    -0.4479  -0.2977  -0.2181  -0.1100   0.0970   0.2364   0.5242   0.6656
     0.8815   1.0854   1.2369   1.3451   1.4146   1.5832   1.7028   1.7649
     1.8537   1.9267   2.0381   2.1003   2.1316   2.1939   2.2894   2.4600

          k = 0.0000 0.3333-0.3333 ( 46844 PWs)   bands (ev):

   -17.8096 -17.2847 -17.0714 -16.6858 -16.5411 -16.3931 -16.1904 -16.0328
   -15.9698 -15.8823 -15.7026 -15.6371 -15.5125 -15.4282 -15.3285 -14.9655
    -5.4489  -5.2508  -5.1429  -5.0955  -4.8499  -4.7712  -4.6829  -4.6067
    -4.3965  -4.2584  -4.1168  -4.0562  -3.9264  -3.8172  -3.5441  -3.3845
    -2.6335  -2.1889  -1.8673  -1.5953  -1.4669  -1.4126  -0.9882  -0.8634
    -0.5286  -0.3369  -0.2262  -0.0375   0.1183   0.2228   0.3814   0.8655
     0.9442   1.1253   1.1714   1.3390   1.4676   1.5362   1.6619   1.7264
     1.8427   1.9249   1.9874   2.0602   2.0827   2.2516   2.3532   2.4812

          k = 0.3333 0.0000 0.0000 ( 46909 PWs)   bands (ev):

   -17.9772 -17.3504 -16.8063 -16.5529 -16.4343 -16.2474 -16.1498 -16.0568
   -16.0231 -16.0015 -15.8794 -15.7722 -15.5950 -15.3982 -15.3024 -14.8662
    -5.5207  -5.4142  -5.3050  -5.2006  -4.9591  -4.9027  -4.7667  -4.5992
    -4.3729  -4.2017  -4.0728  -3.9885  -3.7849  -3.6352  -3.5413  -3.3903
    -2.8894  -2.1859  -1.7571  -1.3863  -1.1042  -0.9724  -0.8275  -0.6548
    -0.5298  -0.4402  -0.3664  -0.1284   0.0268   0.1780   0.5157   0.6822
     0.7928   1.1644   1.3399   1.3854   1.4462   1.5488   1.6221   1.7477
     1.8571   1.8968   1.9722   2.0364   2.1054   2.1879   2.3114   2.3862

          k = 0.3333 0.0000 0.3333 ( 46844 PWs)   bands (ev):

   -17.8074 -17.2780 -17.1103 -16.7498 -16.4490 -16.2962 -16.1939 -16.0546
   -15.9970 -15.8630 -15.7865 -15.6263 -15.5518 -15.4158 -15.2765 -14.9799
    -5.4073  -5.2765  -5.1427  -5.0848  -4.9508  -4.8232  -4.6336  -4.4962
    -4.3138  -4.2414  -4.1123  -4.0578  -3.9995  -3.8440  -3.6605  -3.4147
    -2.5614  -2.2987  -1.7930  -1.7364  -1.4088  -1.2985  -1.0820  -0.8375
    -0.3573  -0.2589  -0.1271  -0.0006   0.2142   0.2881   0.3954   0.6116
     0.9398   1.0400   1.0909   1.3083   1.4251   1.5367   1.6382   1.7491
     1.8307   1.9372   2.0055   2.0443   2.1305   2.3033   2.3495   2.4341

          k = 0.3333 0.0000-0.3333 ( 46844 PWs)   bands (ev):

   -17.8019 -17.2984 -17.1156 -16.7013 -16.4711 -16.3006 -16.1709 -16.0845
   -15.9808 -15.9036 -15.7798 -15.6249 -15.4980 -15.3976 -15.3406 -14.9664
    -5.3170  -5.2192  -5.1714  -5.1441  -4.9607  -4.8201  -4.7066  -4.4785
    -4.3999  -4.3666  -4.1208  -3.9995  -3.9375  -3.7548  -3.6499  -3.3945
    -2.6748  -2.0469  -1.8524  -1.6541  -1.5111  -1.3205  -1.1329  -0.8343
    -0.4562  -0.2341  -0.0688  -0.0223   0.1560   0.2243   0.4809   0.6827
     0.9902   1.0670   1.0980   1.2525   1.4055   1.4958   1.5928   1.7350
     1.8443   1.9162   2.0609   2.1238   2.1578   2.2551   2.3119   2.4546

          k = 0.3333 0.3333 0.0000 ( 46844 PWs)   bands (ev):

   -17.8025 -17.2676 -17.1073 -16.7366 -16.4777 -16.3443 -16.1744 -16.0763
   -16.0025 -15.9180 -15.7316 -15.6101 -15.4799 -15.4202 -15.3072 -14.9751
    -5.4715  -5.3221  -5.1494  -5.0729  -4.8927  -4.8036  -4.6658  -4.5377
    -4.4286  -4.2746  -4.1629  -4.0264  -3.8688  -3.6161  -3.5896  -3.3878
    -2.5843  -2.3309  -1.8488  -1.7652  -1.5280  -1.1560  -1.0805  -0.8613
    -0.4869  -0.2917  -0.1833   0.0030   0.1247   0.1986   0.4697   0.7081
     0.8353   1.0611   1.2152   1.3470   1.5135   1.6251   1.6470   1.7363
     1.8162   1.8617   1.9519   2.1070   2.2195   2.2701   2.3456   2.4032

          k = 0.3333 0.3333 0.3333 ( 46820 PWs)   bands (ev):

   -17.6536 -17.2258 -17.0220 -16.8600 -16.6643 -16.5033 -16.3871 -16.1605
   -15.9261 -15.7264 -15.6831 -15.5071 -15.4686 -15.3389 -15.2680 -15.0515
    -5.3313  -5.1744  -5.0413  -4.9020  -4.8410  -4.7228  -4.6088  -4.4927
    -4.4116  -4.2407  -4.1208  -4.0560  -3.8921  -3.8337  -3.7452  -3.5810
    -2.4267  -2.2842  -2.0842  -1.9230  -1.7538  -1.5521  -1.3908  -1.2005
    -0.1929  -0.1008   0.0309   0.1578   0.2652   0.3428   0.5124   0.7282
     0.9312   1.0890   1.2536   1.3484   1.4727   1.5718   1.6094   1.7508
     1.8161   1.8826   1.9600   2.0599   2.0914   2.1746   2.2630   2.3405

          k = 0.3333 0.3333-0.3333 ( 46820 PWs)   bands (ev):

   -17.6409 -17.2457 -17.0216 -16.9225 -16.5868 -16.4497 -16.3711 -16.2528
   -15.9226 -15.7222 -15.6528 -15.5211 -15.4287 -15.3806 -15.3038 -15.0236
    -5.2638  -5.2013  -5.0489  -4.9874  -4.8380  -4.6847  -4.5640  -4.4903
    -4.3899  -4.3153  -4.1124  -4.0525  -3.9549  -3.8385  -3.7878  -3.4557
    -2.4561  -2.2342  -2.0368  -1.9184  -1.7046  -1.6240  -1.4380  -1.2517
    -0.2027  -0.0552   0.0948   0.1678   0.2427   0.3204   0.4587   0.7117
     0.9338   1.1391   1.2305   1.3992   1.4232   1.5392   1.6758   1.7281
     1.8474   1.8545   1.9280   2.0688   2.1102   2.2046   2.2337   2.3450

          k = 0.3333-0.3333 0.0000 ( 46844 PWs)   bands (ev):

   -17.7947 -17.3004 -17.1030 -16.6838 -16.4459 -16.3980 -16.2136 -16.1169
   -15.9532 -15.8843 -15.7123 -15.6176 -15.5351 -15.3999 -15.2889 -14.9840
    -5.4588  -5.2619  -5.1878  -5.0766  -4.9194  -4.8322  -4.6592  -4.6142
    -4.4048  -4.1674  -4.0716  -3.9739  -3.8558  -3.8000  -3.6064  -3.4555
    -2.6992  -2.0478  -1.8717  -1.6749  -1.5725  -1.3344  -1.0866  -0.7565
    -0.5155  -0.2889  -0.2400   0.0136   0.1133   0.2443   0.3986   0.8245
     0.9816   1.0635   1.1491   1.3004   1.4260   1.5945   1.6721   1.7072
     1.8044   1.9343   2.0035   2.0936   2.1690   2.2389   2.3084   2.4537

          k = 0.3333-0.3333 0.3333 ( 46820 PWs)   bands (ev):

   -17.6413 -17.2415 -17.0606 -16.8225 -16.6379 -16.5351 -16.4015 -16.1321
   -15.8499 -15.7976 -15.6801 -15.5099 -15.4823 -15.3683 -15.2296 -15.0565
    -5.3255  -5.1353  -5.0735  -4.9619  -4.8186  -4.7060  -4.6385  -4.4939
    -4.3278  -4.1924  -4.1023  -4.0754  -3.9481  -3.8580  -3.7338  -3.6414
    -2.4993  -2.2646  -1.9691  -1.8110  -1.6913  -1.5723  -1.5090  -1.2652
    -0.1893  -0.0978   0.0403   0.1748   0.2371   0.3350   0.4212   0.7964
     0.9868   1.1313   1.2375   1.3530   1.4092   1.5639   1.6455   1.7037
     1.7482   1.9050   1.9935   2.0281   2.0897   2.1934   2.2750   2.3845

          k = 0.3333-0.3333-0.3333 ( 46820 PWs)   bands (ev):

   -17.6373 -17.2587 -17.0724 -16.7908 -16.6296 -16.4996 -16.4123 -16.1775
   -15.9024 -15.7893 -15.6419 -15.5338 -15.3987 -15.3707 -15.2913 -15.0400
    -5.3031  -5.1371  -5.0431  -4.9567  -4.8760  -4.7612  -4.6158  -4.4775
    -4.4106  -4.2365  -4.1171  -4.0194  -3.8921  -3.8149  -3.7533  -3.5265
    -2.6159  -2.2063  -1.9471  -1.8869  -1.7586  -1.5680  -1.5115  -1.2095
    -0.1806  -0.0600   0.0534   0.2017   0.2172   0.3254   0.4433   0.7191
     1.0298   1.1223   1.2322   1.3685   1.4680   1.5153   1.5608   1.7498
     1.8223   1.8447   1.9818   2.0620   2.1073   2.1616   2.2592   2.3906

     highest occupied level (ev):     2.5882

!    total energy              =    -549.24190913 Ry
     estimated scf accuracy    <       0.00000004 Ry

     The total energy is the sum of the following terms:
     one-electron contribution =    -164.50629800 Ry
     hartree contribution      =     148.32750289 Ry
     xc contribution           =    -137.33878268 Ry
     ewald contribution        =    -395.72433135 Ry

     convergence has been achieved in  10 iterations

     Writing output data file out/h2o.save/
 
     init_run     :      1.35s CPU      1.45s WALL (       1 calls)
     electrons    :     51.71s CPU     52.91s WALL (       1 calls)

     Called by init_run:
     wfcinit      :      1.21s CPU      1.30s WALL (       1 calls)
     potinit      :      0.04s CPU      0.04s WALL (       1 calls)
     hinit0       :      0.02s CPU      0.02s WALL (       1 calls)

     Called by electrons:
     c_bands      :     46.22s CPU     47.21s WALL (      10 calls)
     sum_band     :      5.12s CPU      5.26s WALL (      10 calls)
     v_of_rho     :      0.28s CPU      0.29s WALL (      11 calls)
     mix_rho      :      0.08s CPU      0.09s WALL (      10 calls)

     Called by c_bands:
     init_us_2    :      1.22s CPU      1.24s WALL (     294 calls)
     cegterg      :     43.79s CPU     44.73s WALL (     140 calls)

     Called by *egterg:
     cdiaghg      :      2.97s CPU      3.02s WALL (     579 calls)
     h_psi        :     32.13s CPU     32.96s WALL (     593 calls)
     g_psi        :      0.21s CPU      0.22s WALL (     439 calls)

     Called by h_psi:
     h_psi:calbec :      2.87s CPU      2.92s WALL (     593 calls)
     vloc_psi     :     25.55s CPU     26.25s WALL (     593 calls)
     add_vuspsi   :      2.94s CPU      2.96s WALL (     593 calls)

     General routines
     calbec       :      2.87s CPU      2.92s WALL (     593 calls)
     fft          :      0.12s CPU      0.12s WALL (     109 calls)
     ffts         :      0.01s CPU      0.01s WALL (      10 calls)
     fftw         :     25.63s CPU     26.33s WALL (   71788 calls)
 
     Parallel routines
     fft_scatt_xy :      4.17s CPU      4.27s WALL (   71907 calls)
     fft_scatt_yz :      8.05s CPU      8.31s WALL (   71907 calls)
 
     PWSCF        :     53.55s CPU     55.36s WALL

 
   This run was terminated on:   2:10:37  25Jun2022            

=------------------------------------------------------------------------------=
   JOB DONE.
=------------------------------------------------------------------------------=
