   6   6   0   0
  0.5000000E+03  0.3000000E-08  0.1000000E-08  0.1000000E-08  0.5000000E-15
  1.000000000000000E-004
  CAR 
 unknown system                          
      1.53341985    -26.05631761  301     -6.64578774      1.00000000
    -26.056  0.0000E+00  0.0000E+00
    -25.964  0.0000E+00  0.0000E+00
    -25.872  0.0000E+00  0.0000E+00
    -25.780  0.0000E+00  0.0000E+00
    -25.688  0.0000E+00  0.0000E+00
    -25.596  0.0000E+00  0.0000E+00
    -25.505  0.0000E+00  0.0000E+00
    -25.413  0.0000E+00  0.0000E+00
    -25.321  0.0000E+00  0.0000E+00
    -25.229  0.0000E+00  0.0000E+00
    -25.137  0.0000E+00  0.0000E+00
    -25.045  0.7611E-10  0.6999E-11
    -24.953  0.2258E-03  0.2077E-04
    -24.861  0.1064E+01  0.9786E-01
    -24.769  0.1694E+02  0.1656E+01
    -24.677  0.4559E+01  0.2075E+01
    -24.585  0.1647E+02  0.3590E+01
    -24.493  0.4453E+01  0.3999E+01
    -24.401  0.6691E-02  0.4000E+01
    -24.309  0.1828E-07  0.4000E+01
    -24.217  0.0000E+00  0.4000E+01
    -24.125  0.0000E+00  0.4000E+01
    -24.033  0.0000E+00  0.4000E+01
    -23.941  0.0000E+00  0.4000E+01
    -23.849  0.0000E+00  0.4000E+01
    -23.757  0.0000E+00  0.4000E+01
    -23.665  0.0000E+00  0.4000E+01
    -23.573  0.0000E+00  0.4000E+01
    -23.481  0.0000E+00  0.4000E+01
    -23.389  0.0000E+00  0.4000E+01
    -23.297  0.0000E+00  0.4000E+01
    -23.205  0.0000E+00  0.4000E+01
    -23.113  0.0000E+00  0.4000E+01
    -23.021  0.0000E+00  0.4000E+01
    -22.929  0.0000E+00  0.4000E+01
    -22.838  0.0000E+00  0.4000E+01
    -22.746  0.0000E+00  0.4000E+01
    -22.654  0.0000E+00  0.4000E+01
    -22.562  0.0000E+00  0.4000E+01
    -22.470  0.0000E+00  0.4000E+01
    -22.378  0.0000E+00  0.4000E+01
    -22.286  0.0000E+00  0.4000E+01
    -22.194  0.0000E+00  0.4000E+01
    -22.102  0.0000E+00  0.4000E+01
    -22.010  0.0000E+00  0.4000E+01
    -21.918  0.0000E+00  0.4000E+01
    -21.826  0.0000E+00  0.4000E+01
    -21.734  0.0000E+00  0.4000E+01
    -21.642  0.0000E+00  0.4000E+01
    -21.550  0.0000E+00  0.4000E+01
    -21.458  0.0000E+00  0.4000E+01
    -21.366  0.0000E+00  0.4000E+01
    -21.274  0.0000E+00  0.4000E+01
    -21.182  0.0000E+00  0.4000E+01
    -21.090  0.0000E+00  0.4000E+01
    -20.998  0.0000E+00  0.4000E+01
    -20.906  0.0000E+00  0.4000E+01
    -20.814  0.0000E+00  0.4000E+01
    -20.722  0.0000E+00  0.4000E+01
    -20.630  0.0000E+00  0.4000E+01
    -20.538  0.0000E+00  0.4000E+01
    -20.446  0.0000E+00  0.4000E+01
    -20.354  0.0000E+00  0.4000E+01
    -20.262  0.0000E+00  0.4000E+01
    -20.171  0.0000E+00  0.4000E+01
    -20.079  0.0000E+00  0.4000E+01
    -19.987  0.0000E+00  0.4000E+01
    -19.895  0.0000E+00  0.4000E+01
    -19.803  0.0000E+00  0.4000E+01
    -19.711  0.0000E+00  0.4000E+01
    -19.619  0.0000E+00  0.4000E+01
    -19.527  0.0000E+00  0.4000E+01
    -19.435  0.0000E+00  0.4000E+01
    -19.343  0.0000E+00  0.4000E+01
    -19.251  0.0000E+00  0.4000E+01
    -19.159  0.0000E+00  0.4000E+01
    -19.067  0.0000E+00  0.4000E+01
    -18.975  0.0000E+00  0.4000E+01
    -18.883  0.0000E+00  0.4000E+01
    -18.791  0.0000E+00  0.4000E+01
    -18.699  0.0000E+00  0.4000E+01
    -18.607  0.0000E+00  0.4000E+01
    -18.515  0.0000E+00  0.4000E+01
    -18.423  0.0000E+00  0.4000E+01
    -18.331  0.0000E+00  0.4000E+01
    -18.239  0.0000E+00  0.4000E+01
    -18.147  0.0000E+00  0.4000E+01
    -18.055  0.0000E+00  0.4000E+01
    -17.963  0.0000E+00  0.4000E+01
    -17.871  0.0000E+00  0.4000E+01
    -17.779  0.0000E+00  0.4000E+01
    -17.687  0.0000E+00  0.4000E+01
    -17.595  0.0000E+00  0.4000E+01
    -17.503  0.0000E+00  0.4000E+01
    -17.412  0.0000E+00  0.4000E+01
    -17.320  0.0000E+00  0.4000E+01
    -17.228  0.0000E+00  0.4000E+01
    -17.136  0.0000E+00  0.4000E+01
    -17.044  0.0000E+00  0.4000E+01
    -16.952  0.0000E+00  0.4000E+01
    -16.860  0.0000E+00  0.4000E+01
    -16.768  0.0000E+00  0.4000E+01
    -16.676  0.0000E+00  0.4000E+01
    -16.584  0.0000E+00  0.4000E+01
    -16.492  0.0000E+00  0.4000E+01
    -16.400  0.0000E+00  0.4000E+01
    -16.308  0.0000E+00  0.4000E+01
    -16.216  0.0000E+00  0.4000E+01
    -16.124  0.0000E+00  0.4000E+01
    -16.032  0.0000E+00  0.4000E+01
    -15.940  0.0000E+00  0.4000E+01
    -15.848  0.0000E+00  0.4000E+01
    -15.756  0.0000E+00  0.4000E+01
    -15.664  0.0000E+00  0.4000E+01
    -15.572  0.0000E+00  0.4000E+01
    -15.480  0.0000E+00  0.4000E+01
    -15.388  0.0000E+00  0.4000E+01
    -15.296  0.0000E+00  0.4000E+01
    -15.204  0.0000E+00  0.4000E+01
    -15.112  0.0000E+00  0.4000E+01
    -15.020  0.0000E+00  0.4000E+01
    -14.928  0.0000E+00  0.4000E+01
    -14.836  0.0000E+00  0.4000E+01
    -14.745  0.0000E+00  0.4000E+01
    -14.653  0.0000E+00  0.4000E+01
    -14.561  0.0000E+00  0.4000E+01
    -14.469  0.0000E+00  0.4000E+01
    -14.377  0.0000E+00  0.4000E+01
    -14.285  0.0000E+00  0.4000E+01
    -14.193  0.0000E+00  0.4000E+01
    -14.101  0.0000E+00  0.4000E+01
    -14.009  0.0000E+00  0.4000E+01
    -13.917  0.0000E+00  0.4000E+01
    -13.825  0.0000E+00  0.4000E+01
    -13.733  0.0000E+00  0.4000E+01
    -13.641  0.0000E+00  0.4000E+01
    -13.549  0.0000E+00  0.4000E+01
    -13.457  0.0000E+00  0.4000E+01
    -13.365  0.0000E+00  0.4000E+01
    -13.273  0.0000E+00  0.4000E+01
    -13.181  0.0000E+00  0.4000E+01
    -13.089  0.0000E+00  0.4000E+01
    -12.997  0.0000E+00  0.4000E+01
    -12.905  0.1207E-14  0.4000E+01
    -12.813  0.1487E-06  0.4000E+01
    -12.721  0.2280E-01  0.4002E+01
    -12.629  0.6880E+01  0.4635E+01
    -12.537  0.1448E+02  0.5967E+01
    -12.445  0.2145E+01  0.6164E+01
    -12.353  0.1750E+02  0.7773E+01
    -12.261  0.2463E+01  0.8000E+01
    -12.169  0.1510E-02  0.8000E+01
    -12.078  0.1569E-08  0.8000E+01
    -11.986  0.0000E+00  0.8000E+01
    -11.894  0.0000E+00  0.8000E+01
    -11.802  0.0000E+00  0.8000E+01
    -11.710  0.0000E+00  0.8000E+01
    -11.618  0.0000E+00  0.8000E+01
    -11.526  0.0000E+00  0.8000E+01
    -11.434  0.0000E+00  0.8000E+01
    -11.342  0.0000E+00  0.8000E+01
    -11.250  0.0000E+00  0.8000E+01
    -11.158  0.0000E+00  0.8000E+01
    -11.066  0.0000E+00  0.8000E+01
    -10.974  0.0000E+00  0.8000E+01
    -10.882  0.0000E+00  0.8000E+01
    -10.790  0.0000E+00  0.8000E+01
    -10.698  0.0000E+00  0.8000E+01
    -10.606  0.0000E+00  0.8000E+01
    -10.514  0.0000E+00  0.8000E+01
    -10.422  0.0000E+00  0.8000E+01
    -10.330  0.0000E+00  0.8000E+01
    -10.238  0.0000E+00  0.8000E+01
    -10.146  0.0000E+00  0.8000E+01
    -10.054  0.0000E+00  0.8000E+01
     -9.962  0.0000E+00  0.8000E+01
     -9.870  0.0000E+00  0.8000E+01
     -9.778  0.0000E+00  0.8000E+01
     -9.686  0.0000E+00  0.8000E+01
     -9.594  0.3358E-08  0.8000E+01
     -9.502  0.2409E-02  0.8000E+01
     -9.411  0.2986E+01  0.8275E+01
     -9.319  0.1733E+02  0.9869E+01
     -9.227  0.2315E+01  0.1008E+02
     -9.135  0.1662E+02  0.1161E+02
     -9.043  0.4232E+01  0.1200E+02
     -8.951  0.5844E-02  0.1200E+02
     -8.859  0.1457E-07  0.1200E+02
     -8.767  0.0000E+00  0.1200E+02
     -8.675  0.0000E+00  0.1200E+02
     -8.583  0.0000E+00  0.1200E+02
     -8.491  0.0000E+00  0.1200E+02
     -8.399  0.0000E+00  0.1200E+02
     -8.307  0.0000E+00  0.1200E+02
     -8.215  0.0000E+00  0.1200E+02
     -8.123  0.0000E+00  0.1200E+02
     -8.031  0.0000E+00  0.1200E+02
     -7.939  0.0000E+00  0.1200E+02
     -7.847  0.0000E+00  0.1200E+02
     -7.755  0.0000E+00  0.1200E+02
     -7.663  0.0000E+00  0.1200E+02
     -7.571  0.0000E+00  0.1200E+02
     -7.479  0.0000E+00  0.1200E+02
     -7.387  0.4286E-08  0.1200E+02
     -7.295  0.2795E-02  0.1200E+02
     -7.203  0.3171E+01  0.1229E+02
     -7.111  0.1725E+02  0.1388E+02
     -7.019  0.1752E+01  0.1404E+02
     -6.927  0.1492E+02  0.1541E+02
     -6.835  0.6382E+01  0.1600E+02
     -6.744  0.1824E-01  0.1600E+02
     -6.652  0.1010E-06  0.1600E+02
     -6.560  0.0000E+00  0.1600E+02
     -6.468  0.0000E+00  0.1600E+02
     -6.376  0.0000E+00  0.1600E+02
     -6.284  0.0000E+00  0.1600E+02
     -6.192  0.0000E+00  0.1600E+02
     -6.100  0.0000E+00  0.1600E+02
     -6.008  0.0000E+00  0.1600E+02
     -5.916  0.0000E+00  0.1600E+02
     -5.824  0.0000E+00  0.1600E+02
     -5.732  0.0000E+00  0.1600E+02
     -5.640  0.0000E+00  0.1600E+02
     -5.548  0.0000E+00  0.1600E+02
     -5.456  0.0000E+00  0.1600E+02
     -5.364  0.0000E+00  0.1600E+02
     -5.272  0.0000E+00  0.1600E+02
     -5.180  0.0000E+00  0.1600E+02
     -5.088  0.0000E+00  0.1600E+02
     -4.996  0.0000E+00  0.1600E+02
     -4.904  0.0000E+00  0.1600E+02
     -4.812  0.0000E+00  0.1600E+02
     -4.720  0.0000E+00  0.1600E+02
     -4.628  0.0000E+00  0.1600E+02
     -4.536  0.0000E+00  0.1600E+02
     -4.444  0.0000E+00  0.1600E+02
     -4.352  0.0000E+00  0.1600E+02
     -4.260  0.0000E+00  0.1600E+02
     -4.168  0.0000E+00  0.1600E+02
     -4.076  0.0000E+00  0.1600E+02
     -3.985  0.0000E+00  0.1600E+02
     -3.893  0.0000E+00  0.1600E+02
     -3.801  0.0000E+00  0.1600E+02
     -3.709  0.0000E+00  0.1600E+02
     -3.617  0.0000E+00  0.1600E+02
     -3.525  0.0000E+00  0.1600E+02
     -3.433  0.0000E+00  0.1600E+02
     -3.341  0.0000E+00  0.1600E+02
     -3.249  0.0000E+00  0.1600E+02
     -3.157  0.0000E+00  0.1600E+02
     -3.065  0.0000E+00  0.1600E+02
     -2.973  0.0000E+00  0.1600E+02
     -2.881  0.0000E+00  0.1600E+02
     -2.789  0.0000E+00  0.1600E+02
     -2.697  0.0000E+00  0.1600E+02
     -2.605  0.0000E+00  0.1600E+02
     -2.513  0.0000E+00  0.1600E+02
     -2.421  0.0000E+00  0.1600E+02
     -2.329  0.0000E+00  0.1600E+02
     -2.237  0.0000E+00  0.1600E+02
     -2.145  0.0000E+00  0.1600E+02
     -2.053  0.0000E+00  0.1600E+02
     -1.961  0.0000E+00  0.1600E+02
     -1.869  0.0000E+00  0.1600E+02
     -1.777  0.0000E+00  0.1600E+02
     -1.685  0.0000E+00  0.1600E+02
     -1.593  0.0000E+00  0.1600E+02
     -1.501  0.1207E-14  0.1600E+02
     -1.409  0.1112E-06  0.1600E+02
     -1.318  0.1928E-01  0.1600E+02
     -1.226  0.6504E+01  0.1660E+02
     -1.134  0.1481E+02  0.1796E+02
     -1.042  0.7249E+00  0.1803E+02
     -0.950  0.1406E+02  0.1932E+02
     -0.858  0.7342E+01  0.2000E+02
     -0.766  0.2779E-01  0.2000E+02
     -0.674  0.2102E-06  0.2000E+02
     -0.582  0.2414E-14  0.2000E+02
     -0.490  0.0000E+00  0.2000E+02
     -0.398  0.0000E+00  0.2000E+02
     -0.306  0.0000E+00  0.2000E+02
     -0.214  0.0000E+00  0.2000E+02
     -0.122  0.0000E+00  0.2000E+02
     -0.030  0.5888E-07  0.2000E+02
      0.062  0.1333E-01  0.2000E+02
      0.154  0.5729E+01  0.2053E+02
      0.246  0.1923E+02  0.2230E+02
      0.338  0.1746E+02  0.2390E+02
      0.430  0.1057E+01  0.2400E+02
      0.522  0.2227E-03  0.2400E+02
      0.614  0.7449E-10  0.2400E+02
      0.706  0.0000E+00  0.2400E+02
      0.798  0.0000E+00  0.2400E+02
      0.890  0.0000E+00  0.2400E+02
      0.982  0.0000E+00  0.2400E+02
      1.074  0.0000E+00  0.2400E+02
      1.166  0.0000E+00  0.2400E+02
      1.258  0.0000E+00  0.2400E+02
      1.349  0.0000E+00  0.2400E+02
      1.441  0.0000E+00  0.2400E+02
      1.533  0.0000E+00  0.2400E+02
