    6    6    1    1
  0.5000000E+03  0.3000000E-08  0.1000000E-08  0.1000000E-08  0.5000000E-15
  1.000000000000000E-004
  CAR 
 unknown system                          
     16      2     12
 
  0.0000000E+00  0.2500000E+00  0.2500000E+00  0.5000000E+00
    1      -24.802239   1.000000
    2      -24.613983   1.000000
    3      -12.612518   1.000000
    4      -12.396158   1.000000
    5       -9.371904   1.000000
    6       -9.165024   1.000000
    7       -7.166067   1.000000
    8       -6.946555   1.000000
    9       -1.207007   0.000000
   10       -0.964356   0.000000
   11        0.176116   0.000000
   12        0.279341   0.000000
 
  0.0000000E+00 -0.2500000E+00  0.2500000E+00  0.5000000E+00
    1      -24.802239   1.000000
    2      -24.613983   1.000000
    3      -12.612518   1.000000
    4      -12.396158   1.000000
    5       -9.371904   1.000000
    6       -9.165024   1.000000
    7       -7.166067   1.000000
    8       -6.946555   1.000000
    9       -1.207009   0.000000
   10       -0.964337   0.000000
   11        0.176408   0.000000
   12        0.279121   0.000000
