Automatically generated mesh
       2
Reciprocal lattice
    0.00000000000000    0.25000000000000    0.25000000000000             2
    0.00000000000000   -0.25000000000000    0.25000000000000             2
