<?xml version="1.0" encoding="ISO-8859-1"?>
<modeling>
 <generator>
  <i name="program" type="string">vasp </i>
  <i name="version" type="string">5.4.4.18Apr17-6-g9f103f2a35  </i>
  <i name="subversion" type="string">(build Nov 25 2019 16:34:31) complex            parallel </i>
  <i name="platform" type="string">LinuxIFC </i>
  <i name="date" type="string">2021 04 06 </i>
  <i name="time" type="string">12:18:04 </i>
 </generator>
 <incar>
  <i type="string" name="PREC">a</i>
  <i type="string" name="ALGO">fast</i>
  <i name="AMIN">      0.00500000</i>
  <i type="int" name="NELM">   300</i>
  <i type="int" name="NELMIN">     4</i>
  <i type="int" name="IBRION">    -1</i>
  <i name="EDIFF">      0.00000001</i>
  <i type="int" name="NSW">     0</i>
  <i type="int" name="ISIF">     2</i>
  <i name="ENCUT">   1500.00000000</i>
  <i type="logical" name="LREAL"> F  </i>
  <i type="int" name="ISMEAR">     0</i>
  <i name="SIGMA">      0.05000000</i>
  <i name="KSPACING">      0.50000000</i>
  <i type="logical" name="KGAMMA"> F  </i>
  <i name="PSTRESS">      0.00000000</i>
  <i type="logical" name="LWAVE"> F  </i>
  <i type="logical" name="LCHARG"> F  </i>
  <v type="int" name="KPOINT_BSE">    -1     0     0     0</v>
  <i type="int" name="NELM">   300</i>
 </incar>
 <structure name="primitive_cell" >
  <crystal>
   <varray name="basis" >
    <v>      30.00000000       0.00000000       0.00000000 </v>
    <v>       0.00000000      10.00000000       0.00000000 </v>
    <v>       0.00000000       0.00000000      10.00000000 </v>
   </varray>
   <i name="volume">   3000.00000000 </i>
   <varray name="rec_basis" >
    <v>       0.03333333       0.00000000       0.00000000 </v>
    <v>       0.00000000       0.10000000       0.00000000 </v>
    <v>       0.00000000       0.00000000       0.10000000 </v>
   </varray>
  </crystal>
  <varray name="positions" >
   <v>       0.22186896       0.15710957       0.17600000 </v>
   <v>       0.18847255       0.16672783       0.17649328 </v>
   <v>       0.23254413       0.25541218       0.17439231 </v>
   <v>      -0.04486896       0.15710957       0.17600000 </v>
   <v>      -0.05375150       0.09907990       0.09607226 </v>
   <v>      -0.05387697       0.09941802       0.25610440 </v>
  </varray>
 </structure>
 <varray name="primitive_index" >
  <v type="int" >        1 </v>
  <v type="int" >        4 </v>
  <v type="int" >        3 </v>
  <v type="int" >        2 </v>
  <v type="int" >        6 </v>
  <v type="int" >        5 </v>
 </varray>
 <kpoints>
  <generation param="Monkhorst-Pack">
   <v type="int" name="divisions">       1        2        2 </v>
   <v name="usershift">      0.00000000       0.00000000       0.00000000 </v>
   <v name="genvec1">      1.00000000       0.00000000       0.00000000 </v>
   <v name="genvec2">      0.00000000       0.50000000       0.00000000 </v>
   <v name="genvec3">      0.00000000       0.00000000       0.50000000 </v>
   <v name="shift">      0.00000000       0.50000000       0.50000000 </v>
  </generation>
  <varray name="kpointlist" >
   <v>       0.00000000       0.25000000       0.25000000 </v>
   <v>       0.00000000      -0.25000000       0.25000000 </v>
  </varray>
  <varray name="weights" >
   <v>       0.50000000 </v>
   <v>       0.50000000 </v>
  </varray>
 </kpoints>
 <parameters>
  <separator name="general" >
   <i type="string" name="SYSTEM">unknown system</i>
   <i type="logical" name="LCOMPAT"> F  </i>
  </separator>
  <separator name="electronic" >
   <i type="string" name="PREC">a</i>
   <i name="ENMAX">   1500.00000000</i>
   <i name="ENAUG">   1000.00000000</i>
   <i name="EDIFF">      0.00000001</i>
   <i type="int" name="IALGO">    68</i>
   <i type="int" name="IWAVPR">    10</i>
   <i type="int" name="NBANDS">    12</i>
   <i name="NELECT">     16.00000000</i>
   <i type="int" name="TURBO">     0</i>
   <i type="int" name="IRESTART">     0</i>
   <i type="int" name="NREBOOT">     0</i>
   <i type="int" name="NMIN">     0</i>
   <i name="EREF">      0.00000000</i>
   <separator name="electronic smearing" >
    <i type="int" name="ISMEAR">     0</i>
    <i name="SIGMA">      0.05000000</i>
    <i name="KSPACING">      0.50000000</i>
    <i type="logical" name="KGAMMA"> F  </i>
   </separator>
   <separator name="electronic projectors" >
    <i type="logical" name="LREAL"> F  </i>
    <v name="ROPT">      0.00000000      0.00000000</v>
    <i type="int" name="LMAXPAW">  -100</i>
    <i type="int" name="LMAXMIX">     2</i>
    <i type="logical" name="NLSPLINE"> F  </i>
   </separator>
   <separator name="electronic startup" >
    <i type="int" name="ISTART">     0</i>
    <i type="int" name="ICHARG">     2</i>
    <i type="int" name="INIWAV">     1</i>
   </separator>
   <separator name="electronic spin" >
    <i type="int" name="ISPIN">     1</i>
    <i type="logical" name="LNONCOLLINEAR"> F  </i>
    <v name="MAGMOM">      1.00000000      1.00000000      1.00000000      1.00000000      1.00000000      1.00000000</v>
    <i name="NUPDOWN">     -1.00000000</i>
    <i type="logical" name="LSORBIT"> F  </i>
    <v name="SAXIS">      0.00000000      0.00000000      1.00000000</v>
    <i type="logical" name="LSPIRAL"> F  </i>
    <v name="QSPIRAL">      0.00000000      0.00000000      0.00000000</v>
    <i type="logical" name="LZEROZ"> F  </i>
   </separator>
   <separator name="electronic exchange-correlation" >
    <i type="logical" name="LASPH"> F  </i>
    <i type="logical" name="LMETAGGA"> F  </i>
   </separator>
   <separator name="electronic convergence" >
    <i type="int" name="NELM">   300</i>
    <i type="int" name="NELMDL">     0</i>
    <i type="int" name="NELMIN">     4</i>
    <i name="ENINI">   1500.00000000</i>
    <separator name="electronic convergence detail" >
     <i type="logical" name="LDIAG"> T  </i>
     <i type="logical" name="LSUBROT"> F  </i>
     <i name="WEIMIN">      0.00000000</i>
     <i name="EBREAK">      0.00000000</i>
     <i name="DEPER">      0.30000000</i>
     <i type="int" name="NRMM">     4</i>
     <i name="TIME">      0.40000000</i>
    </separator>
   </separator>
   <separator name="electronic mixer" >
    <i name="AMIX">      0.40000000</i>
    <i name="BMIX">      1.00000000</i>
    <i name="AMIN">      0.00500000</i>
    <i name="AMIX_MAG">      1.60000000</i>
    <i name="BMIX_MAG">      1.00000000</i>
    <separator name="electronic mixer details" >
     <i type="int" name="IMIX">     4</i>
     <i type="logical" name="MIXFIRST"> F  </i>
     <i type="int" name="MAXMIX">   -45</i>
     <i name="WC">    100.00000000</i>
     <i type="int" name="INIMIX">     1</i>
     <i type="int" name="MIXPRE">     1</i>
     <i type="int" name="MREMOVE">     5</i>
    </separator>
   </separator>
   <separator name="electronic dipolcorrection" >
    <i type="logical" name="LDIPOL"> F  </i>
    <i type="logical" name="LMONO"> F  </i>
    <i type="int" name="IDIPOL">     0</i>
    <i name="EPSILON">      1.00000000</i>
    <v name="DIPOL">   -100.00000000   -100.00000000   -100.00000000</v>
    <i name="EFIELD">      0.00000000</i>
   </separator>
  </separator>
  <separator name="grids" >
   <i type="int" name="NGX">   384</i>
   <i type="int" name="NGY">   126</i>
   <i type="int" name="NGZ">   126</i>
   <i type="int" name="NGXF">   768</i>
   <i type="int" name="NGYF">   252</i>
   <i type="int" name="NGZF">   252</i>
   <i type="logical" name="ADDGRID"> F  </i>
  </separator>
  <separator name="ionic" >
   <i type="int" name="NSW">     0</i>
   <i type="int" name="IBRION">    -1</i>
   <i type="int" name="MDALGO">     0</i>
   <i type="int" name="ISIF">     2</i>
   <i name="PSTRESS">      0.00000000</i>
   <i name="EDIFFG">      0.00000010</i>
   <i type="int" name="NFREE">     0</i>
   <i name="POTIM">      0.50000000</i>
   <i name="SMASS">     -3.00000000</i>
   <i name="SCALEE">      1.00000000</i>
  </separator>
  <separator name="ionic md" >
   <i name="TEBEG">      0.00010000</i>
   <i name="TEEND">      0.00010000</i>
   <i type="int" name="NBLOCK">     1</i>
   <i type="int" name="KBLOCK">     1</i>
   <i type="int" name="NPACO">   256</i>
   <i name="APACO">     16.00000000</i>
  </separator>
  <separator name="symmetry" >
   <i type="int" name="ISYM">     2</i>
   <i name="SYMPREC">      0.00001000</i>
  </separator>
  <separator name="dos" >
   <i type="int" name="LORBIT">     0</i>
   <v name="RWIGS">     -1.00000000     -1.00000000</v>
   <i type="int" name="NEDOS">   301</i>
   <i name="EMIN">     10.00000000</i>
   <i name="EMAX">    -10.00000000</i>
   <i name="EFERMI">      0.00000000</i>
  </separator>
  <separator name="writing" >
   <i type="int" name="NWRITE">     2</i>
   <i type="logical" name="LWAVE"> F  </i>
   <i type="logical" name="LDOWNSAMPLE"> F  </i>
   <i type="logical" name="LCHARG"> F  </i>
   <i type="logical" name="LPARD"> F  </i>
   <i type="logical" name="LVTOT"> F  </i>
   <i type="logical" name="LVHAR"> F  </i>
   <i type="logical" name="LELF"> F  </i>
   <i type="logical" name="LOPTICS"> F  </i>
   <v name="STM">      0.00000000      0.00000000      0.00000000      0.00000000      0.00000000      0.00000000      0.00000000</v>
  </separator>
  <separator name="performance" >
   <i type="int" name="NPAR">     2</i>
   <i type="int" name="NSIM">     4</i>
   <i type="int" name="NBLK">    -1</i>
   <i type="logical" name="LPLANE"> T  </i>
   <i type="logical" name="LSCALAPACK"> T  </i>
   <i type="logical" name="LSCAAWARE"> F  </i>
   <i type="logical" name="LSCALU"> F  </i>
   <i type="logical" name="LASYNC"> F  </i>
   <i type="logical" name="LORBITALREAL"> F  </i>
  </separator>
  <separator name="miscellaneous" >
   <i type="int" name="IDIOT">     3</i>
   <i type="int" name="ISPECIAL">     0</i>
   <i type="logical" name="LMUSIC"> F  </i>
   <v name="POMASS">     16.00000000      1.00000000</v>
   <v name="DARWINR">      0.00000000      0.00000000</v>
   <v name="DARWINV">      1.00000000      1.00000000</v>
   <i type="logical" name="LCORR"> T  </i>
  </separator>
  <i type="logical" name="GGA_COMPAT"> T  </i>
  <i type="logical" name="LBERRY"> F  </i>
  <i type="int" name="ICORELEVEL">     0</i>
  <i type="logical" name="LDAU"> F  </i>
  <i type="int" name="I_CONSTRAINED_M">     0</i>
  <separator name="electronic exchange-correlation" >
   <i type="string" name="GGA">--</i>
   <i type="int" name="VOSKOWN">     0</i>
   <i type="logical" name="LHFCALC"> F  </i>
   <i type="string" name="PRECFOCK"></i>
   <i type="logical" name="LSYMGRAD"> F  </i>
   <i type="logical" name="LHFONE"> F  </i>
   <i type="logical" name="LRHFCALC"> F  </i>
   <i type="logical" name="LTHOMAS"> F  </i>
   <i type="logical" name="LMODELHF"> F  </i>
   <i name="ENCUT4O">     -1.00000000</i>
   <i type="int" name="EXXOEP">     0</i>
   <i type="int" name="FOURORBIT">     0</i>
   <i name="AEXX">      0.00000000</i>
   <i name="HFALPHA">      0.00000000</i>
   <i name="MCALPHA">      0.00000000</i>
   <i name="ALDAX">      1.00000000</i>
   <i name="AGGAX">      1.00000000</i>
   <i name="ALDAC">      1.00000000</i>
   <i name="AGGAC">      1.00000000</i>
   <i type="int" name="NKREDX">     1</i>
   <i type="int" name="NKREDY">     1</i>
   <i type="int" name="NKREDZ">     1</i>
   <i type="logical" name="SHIFTRED"> F  </i>
   <i type="logical" name="ODDONLY"> F  </i>
   <i type="logical" name="EVENONLY"> F  </i>
   <i type="int" name="LMAXFOCK">     0</i>
   <i type="int" name="NMAXFOCKAE">     0</i>
   <i type="logical" name="LFOCKAEDFT"> F  </i>
   <i name="HFSCREEN">      0.00000000</i>
   <i name="HFSCREENC">      0.00000000</i>
   <i type="int" name="NBANDSGWLOW">     0</i>
  </separator>
  <separator name="vdW DFT" >
   <i type="logical" name="LUSE_VDW"> F  </i>
   <i name="Zab_VDW">     -0.84910000</i>
   <i name="PARAM1">      0.12340000</i>
   <i name="PARAM2">      1.00000000</i>
   <i name="PARAM3">      0.00000000</i>
  </separator>
  <separator name="model GW" >
   <i type="int" name="MODEL_GW">     0</i>
   <i name="MODEL_EPS0">    300.00000000</i>
   <i name="MODEL_ALPHA">      1.00000000</i>
  </separator>
  <separator name="linear response parameters" >
   <i type="logical" name="LEPSILON"> F  </i>
   <i type="logical" name="LRPA"> F  </i>
   <i type="logical" name="LNABLA"> F  </i>
   <i type="logical" name="LVEL"> F  </i>
   <i type="int" name="KINTER">     0</i>
   <i name="CSHIFT">      0.10000000</i>
   <i name="OMEGAMAX">     -1.00000000</i>
   <i name="DEG_THRESHOLD">      0.00200000</i>
   <i name="RTIME">     -0.10000000</i>
   <i name="WPLASMAI">      0.00000000</i>
   <v name="DFIELD">      0.00000000      0.00000000      0.00000000</v>
   <v name="WPLASMA">      0.00000000      0.00000000      0.00000000      0.00000000      0.00000000      0.00000000      0.00000000      0.00000000      0.00000000</v>
  </separator>
  <separator name="orbital magnetization" >
   <i type="logical" name="NUCIND"> F  </i>
   <v name="MAGPOS">      0.00000000      0.00000000      0.00000000</v>
   <i type="logical" name="LNICSALL"> T  </i>
   <i type="logical" name="ORBITALMAG"> F  </i>
   <i type="logical" name="LMAGBLOCH"> F  </i>
   <i type="logical" name="LCHIMAG"> F  </i>
   <i type="logical" name="LGAUGE"> T  </i>
   <i type="int" name="MAGATOM">     0</i>
   <v name="MAGDIPOL">      0.00000000      0.00000000      0.00000000</v>
   <v name="AVECCONST">      0.00000000      0.00000000      0.00000000</v>
  </separator>
  <separator name="response functions" >
   <i type="logical" name="LADDER"> F  </i>
   <i type="logical" name="LRPAFORCE"> F  </i>
   <i type="logical" name="LFXC"> F  </i>
   <i type="logical" name="LHARTREE"> T  </i>
   <i type="int" name="IBSE">     0</i>
   <v type="int" name="KPOINT">    -1     0     0     0</v>
   <i type="logical" name="LTCTE"> F  </i>
   <i type="logical" name="LTETE"> F  </i>
   <i type="logical" name="LTRIPLET"> F  </i>
   <i type="logical" name="LFXCEPS"> F  </i>
   <i type="logical" name="LFXHEG"> F  </i>
   <i type="int" name="NATURALO">     2</i>
   <i type="logical" name="L2ORDER"> F  </i>
   <i type="logical" name="LMP2LT"> F  </i>
   <i type="logical" name="LUSEW"> F  </i>
   <i name="ENCUTGW">     -2.00000000</i>
   <i name="ENCUTGWSOFT">     -2.00000000</i>
   <i name="ENCUTLF">     -1.00000000</i>
   <i type="int" name="LMAXMP2">    -1</i>
   <i name="SCISSOR">      0.00000000</i>
   <i type="int" name="NOMEGA">     0</i>
   <i type="int" name="NOMEGAR">     0</i>
   <i type="int" name="NBANDSGW">    -1</i>
   <i type="int" name="NBANDSO">    -1</i>
   <i type="int" name="NBANDSV">    -1</i>
   <i type="int" name="NELM">   300</i>
   <i type="int" name="NELMHF">     1</i>
   <i type="int" name="DIM">     3</i>
   <i type="int" name="ANTIRES">     0</i>
   <i name="OMEGAMAX">    -30.00000000</i>
   <i name="OMEGAMIN">    -30.00000000</i>
   <i name="OMEGATL">   -200.00000000</i>
   <i type="int" name="OMEGAGRID">   140</i>
   <i name="CSHIFT">     -0.10000000</i>
   <i type="logical" name="SELFENERGY"> F  </i>
   <i type="logical" name="LSPECTRAL"> F  </i>
   <i type="logical" name="LSPECTRALGW"> F  </i>
   <i type="logical" name="LSINGLES"> F  </i>
   <i type="logical" name="LFERMIGW"> F  </i>
   <i type="logical" name="ODDONLYGW"> F  </i>
   <i type="logical" name="EVENONLYGW"> F  </i>
   <i type="int" name="NKREDLFX">     1</i>
   <i type="int" name="NKREDLFY">     1</i>
   <i type="int" name="NKREDLFZ">     1</i>
   <i type="int" name="MAXMEM">  2800</i>
   <i type="int" name="TELESCOPE">     0</i>
   <i type="int" name="TAUPAR">     1</i>
   <i type="int" name="OMEGAPAR">    -1</i>
   <i name="LAMBDA">      1.00000000</i>
  </separator>
  <separator name="External order field" >
   <i name="OFIELD_KAPPA">      0.00000000</i>
   <v name="OFIELD_K">      0.00000000      0.00000000      0.00000000</v>
   <i name="OFIELD_Q6_NEAR">      0.00000000</i>
   <i name="OFIELD_Q6_FAR">      0.00000000</i>
   <i name="OFIELD_A">      0.00000000</i>
  </separator>
 </parameters>
 <atominfo>
  <atoms>       6 </atoms>
  <types>       2 </types>
  <array name="atoms" >
   <dimension dim="1">ion</dimension>
   <field type="string">element</field>
   <field type="int">atomtype</field>
   <set>
    <rc><c>O </c><c>   1</c></rc>
    <rc><c>O </c><c>   1</c></rc>
    <rc><c>H </c><c>   2</c></rc>
    <rc><c>H </c><c>   2</c></rc>
    <rc><c>H </c><c>   2</c></rc>
    <rc><c>H </c><c>   2</c></rc>
   </set>
  </array>
  <array name="atomtypes" >
   <dimension dim="1">type</dimension>
   <field type="int">atomspertype</field>
   <field type="string">element</field>
   <field>mass</field>
   <field>valence</field>
   <field type="string">pseudopotential</field>
   <set>
    <rc><c>   2</c><c>O </c><c>     16.00000000</c><c>      6.00000000</c><c>  PAW_PBE O_h 06Feb2004                 </c></rc>
    <rc><c>   4</c><c>H </c><c>      1.00000000</c><c>      1.00000000</c><c>  PAW_PBE H_h 06Feb2004                 </c></rc>
   </set>
  </array>
 </atominfo>
 <structure name="initialpos" >
  <crystal>
   <varray name="basis" >
    <v>      30.00000000       0.00000000       0.00000000 </v>
    <v>       0.00000000      10.00000000       0.00000000 </v>
    <v>       0.00000000       0.00000000      10.00000000 </v>
   </varray>
   <i name="volume">   3000.00000000 </i>
   <varray name="rec_basis" >
    <v>       0.03333333       0.00000000       0.00000000 </v>
    <v>       0.00000000       0.10000000       0.00000000 </v>
    <v>       0.00000000       0.00000000       0.10000000 </v>
   </varray>
  </crystal>
  <varray name="positions" >
   <v>       0.22186896       0.15710957       0.17600000 </v>
   <v>       0.95513104       0.15710957       0.17600000 </v>
   <v>       0.23254413       0.25541218       0.17439231 </v>
   <v>       0.18847255       0.16672783       0.17649328 </v>
   <v>       0.94612303       0.09941802       0.25610440 </v>
   <v>       0.94624850       0.09907990       0.09607226 </v>
  </varray>
 </structure>
 <calculation>
  <scstep>
   <time name="dav">    3.24    3.26</time>
   <time name="total">    5.95    5.99</time>
   <energy>
    <i name="alphaZ">      0.21758540 </i>
    <i name="ewald">    239.95241110 </i>
    <i name="hartreedc">   -965.89787397 </i>
    <i name="XCdc">     60.59468718 </i>
    <i name="pawpsdc">    697.41634940 </i>
    <i name="pawaedc">   -699.85762974 </i>
    <i name="eentropy">     -0.00000000 </i>
    <i name="bandstr">    -94.34899886 </i>
    <i name="atom">    914.70366869 </i>
    <i name="e_fr_energy">    152.78019921 </i>
    <i name="e_wo_entrp">    152.78019921 </i>
    <i name="e_0_energy">    152.78019921 </i>
   </energy>
  </scstep>
  <scstep>
   <time name="dav">    4.41    4.47</time>
   <time name="total">    4.41    4.47</time>
   <energy>
    <i name="e_fr_energy">     56.29953023 </i>
    <i name="e_wo_entrp">     56.29953023 </i>
    <i name="e_0_energy">     56.29953023 </i>
   </energy>
  </scstep>
  <scstep>
   <time name="dav">    3.78    3.81</time>
   <time name="total">    3.78    3.81</time>
   <energy>
    <i name="e_fr_energy">    -18.16299551 </i>
    <i name="e_wo_entrp">    -18.16299551 </i>
    <i name="e_0_energy">    -18.16299551 </i>
   </energy>
  </scstep>
  <scstep>
   <time name="dav">    3.20    3.22</time>
   <time name="total">    3.20    3.22</time>
   <energy>
    <i name="e_fr_energy">    -31.60354206 </i>
    <i name="e_wo_entrp">    -31.60354206 </i>
    <i name="e_0_energy">    -31.60354206 </i>
   </energy>
  </scstep>
  <scstep>
   <time name="dav">    3.21    3.22</time>
   <time name="total">    3.74    3.76</time>
   <energy>
    <i name="e_fr_energy">    -31.98043801 </i>
    <i name="e_wo_entrp">    -31.98043801 </i>
    <i name="e_0_energy">    -31.98043801 </i>
   </energy>
  </scstep>
  <scstep>
   <time name="diag">    0.62    0.69</time>
   <time name="diis">    3.64    3.66</time>
   <time name="orth">    0.02    0.02</time>
   <time name="total">    7.52    7.64</time>
   <energy>
    <i name="e_fr_energy">    -28.60543334 </i>
    <i name="e_wo_entrp">    -28.60543334 </i>
    <i name="e_0_energy">    -28.60543334 </i>
   </energy>
  </scstep>
  <scstep>
   <time name="diag">    0.66    0.66</time>
   <time name="diis">    4.28    4.30</time>
   <time name="orth">    0.02    0.02</time>
   <time name="total">    8.23    8.28</time>
   <energy>
    <i name="e_fr_energy">    -28.54389687 </i>
    <i name="e_wo_entrp">    -28.54389687 </i>
    <i name="e_0_energy">    -28.54389687 </i>
   </energy>
  </scstep>
  <scstep>
   <time name="diag">    0.67    0.67</time>
   <time name="diis">    3.71    3.74</time>
   <time name="orth">    0.03    0.03</time>
   <time name="total">    7.67    7.71</time>
   <energy>
    <i name="e_fr_energy">    -29.38703753 </i>
    <i name="e_wo_entrp">    -29.38703753 </i>
    <i name="e_0_energy">    -29.38703753 </i>
   </energy>
  </scstep>
  <scstep>
   <time name="diag">    0.67    0.67</time>
   <time name="diis">    3.62    3.63</time>
   <time name="orth">    0.02    0.02</time>
   <time name="total">    7.50    7.58</time>
   <energy>
    <i name="e_fr_energy">    -28.30844327 </i>
    <i name="e_wo_entrp">    -28.30844327 </i>
    <i name="e_0_energy">    -28.30844327 </i>
   </energy>
  </scstep>
  <scstep>
   <time name="diag">    0.67    0.67</time>
   <time name="diis">    4.39    4.40</time>
   <time name="orth">    0.02    0.02</time>
   <time name="total">    8.36    8.38</time>
   <energy>
    <i name="e_fr_energy">    -28.32263907 </i>
    <i name="e_wo_entrp">    -28.32263907 </i>
    <i name="e_0_energy">    -28.32263907 </i>
   </energy>
  </scstep>
  <scstep>
   <time name="diag">    0.67    0.67</time>
   <time name="diis">    4.05    4.06</time>
   <time name="orth">    0.02    0.02</time>
   <time name="total">    8.00    8.02</time>
   <energy>
    <i name="e_fr_energy">    -28.31902125 </i>
    <i name="e_wo_entrp">    -28.31902125 </i>
    <i name="e_0_energy">    -28.31902125 </i>
   </energy>
  </scstep>
  <scstep>
   <time name="diag">    0.66    0.66</time>
   <time name="diis">    3.60    3.63</time>
   <time name="orth">    0.02    0.02</time>
   <time name="total">    7.55    7.59</time>
   <energy>
    <i name="e_fr_energy">    -28.32261849 </i>
    <i name="e_wo_entrp">    -28.32261849 </i>
    <i name="e_0_energy">    -28.32261849 </i>
   </energy>
  </scstep>
  <scstep>
   <time name="diag">    0.67    0.67</time>
   <time name="diis">    3.53    3.54</time>
   <time name="orth">    0.02    0.02</time>
   <time name="total">    7.50    7.52</time>
   <energy>
    <i name="e_fr_energy">    -28.32673183 </i>
    <i name="e_wo_entrp">    -28.32673183 </i>
    <i name="e_0_energy">    -28.32673183 </i>
   </energy>
  </scstep>
  <scstep>
   <time name="diag">    0.66    0.67</time>
   <time name="diis">    3.40    3.41</time>
   <time name="orth">    0.02    0.02</time>
   <time name="total">    7.35    7.37</time>
   <energy>
    <i name="e_fr_energy">    -28.33505618 </i>
    <i name="e_wo_entrp">    -28.33505618 </i>
    <i name="e_0_energy">    -28.33505618 </i>
   </energy>
  </scstep>
  <scstep>
   <time name="diag">    0.66    0.67</time>
   <time name="diis">    3.53    3.54</time>
   <time name="orth">    0.02    0.02</time>
   <time name="total">    7.48    7.50</time>
   <energy>
    <i name="e_fr_energy">    -28.33544534 </i>
    <i name="e_wo_entrp">    -28.33544534 </i>
    <i name="e_0_energy">    -28.33544534 </i>
   </energy>
  </scstep>
  <scstep>
   <time name="diag">    0.66    0.66</time>
   <time name="diis">    3.55    3.57</time>
   <time name="orth">    0.02    0.02</time>
   <time name="total">    7.47    7.49</time>
   <energy>
    <i name="e_fr_energy">    -28.33813521 </i>
    <i name="e_wo_entrp">    -28.33813521 </i>
    <i name="e_0_energy">    -28.33813521 </i>
   </energy>
  </scstep>
  <scstep>
   <time name="diag">    0.66    0.66</time>
   <time name="diis">    4.04    4.04</time>
   <time name="orth">    0.02    0.02</time>
   <time name="total">    7.95    7.97</time>
   <energy>
    <i name="e_fr_energy">    -28.33999689 </i>
    <i name="e_wo_entrp">    -28.33999689 </i>
    <i name="e_0_energy">    -28.33999689 </i>
   </energy>
  </scstep>
  <scstep>
   <time name="diag">    0.67    0.67</time>
   <time name="diis">    3.63    3.64</time>
   <time name="orth">    0.02    0.02</time>
   <time name="total">    7.56    7.60</time>
   <energy>
    <i name="e_fr_energy">    -28.33930405 </i>
    <i name="e_wo_entrp">    -28.33930405 </i>
    <i name="e_0_energy">    -28.33930405 </i>
   </energy>
  </scstep>
  <scstep>
   <time name="diag">    0.68    0.69</time>
   <time name="diis">    3.21    3.21</time>
   <time name="orth">    0.03    0.03</time>
   <time name="total">    7.21    7.22</time>
   <energy>
    <i name="e_fr_energy">    -28.33974296 </i>
    <i name="e_wo_entrp">    -28.33974296 </i>
    <i name="e_0_energy">    -28.33974296 </i>
   </energy>
  </scstep>
  <scstep>
   <time name="diag">    0.67    0.67</time>
   <time name="diis">    3.98    3.99</time>
   <time name="orth">    0.02    0.02</time>
   <time name="total">    7.92    7.93</time>
   <energy>
    <i name="e_fr_energy">    -28.34017258 </i>
    <i name="e_wo_entrp">    -28.34017258 </i>
    <i name="e_0_energy">    -28.34017258 </i>
   </energy>
  </scstep>
  <scstep>
   <time name="diag">    0.66    0.66</time>
   <time name="diis">    3.63    3.63</time>
   <time name="orth">    0.02    0.02</time>
   <time name="total">    7.59    7.59</time>
   <energy>
    <i name="e_fr_energy">    -28.33951231 </i>
    <i name="e_wo_entrp">    -28.33951231 </i>
    <i name="e_0_energy">    -28.33951231 </i>
   </energy>
  </scstep>
  <scstep>
   <time name="diag">    0.67    0.67</time>
   <time name="diis">    3.29    3.29</time>
   <time name="orth">    0.02    0.02</time>
   <time name="total">    7.24    7.24</time>
   <energy>
    <i name="e_fr_energy">    -28.33875341 </i>
    <i name="e_wo_entrp">    -28.33875341 </i>
    <i name="e_0_energy">    -28.33875341 </i>
   </energy>
  </scstep>
  <scstep>
   <time name="diag">    0.67    0.67</time>
   <time name="diis">    3.67    3.67</time>
   <time name="orth">    0.02    0.02</time>
   <time name="total">    7.59    7.60</time>
   <energy>
    <i name="e_fr_energy">    -28.33919778 </i>
    <i name="e_wo_entrp">    -28.33919778 </i>
    <i name="e_0_energy">    -28.33919778 </i>
   </energy>
  </scstep>
  <scstep>
   <time name="diag">    0.67    0.67</time>
   <time name="diis">    4.27    4.35</time>
   <time name="orth">    0.02    0.02</time>
   <time name="total">    8.25    8.34</time>
   <energy>
    <i name="e_fr_energy">    -28.33978134 </i>
    <i name="e_wo_entrp">    -28.33978134 </i>
    <i name="e_0_energy">    -28.33978134 </i>
   </energy>
  </scstep>
  <scstep>
   <time name="diag">    0.66    0.66</time>
   <time name="diis">    3.96    3.97</time>
   <time name="orth">    0.02    0.02</time>
   <time name="total">    7.95    7.97</time>
   <energy>
    <i name="e_fr_energy">    -28.33992067 </i>
    <i name="e_wo_entrp">    -28.33992067 </i>
    <i name="e_0_energy">    -28.33992067 </i>
   </energy>
  </scstep>
  <scstep>
   <time name="diag">    0.66    0.66</time>
   <time name="diis">    3.12    3.13</time>
   <time name="orth">    0.02    0.02</time>
   <time name="total">    7.13    7.15</time>
   <energy>
    <i name="e_fr_energy">    -28.34002951 </i>
    <i name="e_wo_entrp">    -28.34002951 </i>
    <i name="e_0_energy">    -28.34002951 </i>
   </energy>
  </scstep>
  <scstep>
   <time name="diag">    0.68    0.68</time>
   <time name="diis">    3.19    3.20</time>
   <time name="orth">    0.02    0.02</time>
   <time name="total">    7.23    7.24</time>
   <energy>
    <i name="e_fr_energy">    -28.34010123 </i>
    <i name="e_wo_entrp">    -28.34010123 </i>
    <i name="e_0_energy">    -28.34010123 </i>
   </energy>
  </scstep>
  <scstep>
   <time name="diag">    0.67    0.67</time>
   <time name="diis">    3.71    3.71</time>
   <time name="orth">    0.02    0.02</time>
   <time name="total">    7.73    7.75</time>
   <energy>
    <i name="e_fr_energy">    -28.34021062 </i>
    <i name="e_wo_entrp">    -28.34021062 </i>
    <i name="e_0_energy">    -28.34021062 </i>
   </energy>
  </scstep>
  <scstep>
   <time name="diag">    0.67    0.67</time>
   <time name="diis">    3.65    3.66</time>
   <time name="orth">    0.02    0.02</time>
   <time name="total">    7.60    7.62</time>
   <energy>
    <i name="e_fr_energy">    -28.34029550 </i>
    <i name="e_wo_entrp">    -28.34029550 </i>
    <i name="e_0_energy">    -28.34029550 </i>
   </energy>
  </scstep>
  <scstep>
   <time name="diag">    0.66    0.67</time>
   <time name="diis">    3.56    3.56</time>
   <time name="orth">    0.02    0.02</time>
   <time name="total">    7.56    7.58</time>
   <energy>
    <i name="e_fr_energy">    -28.34036733 </i>
    <i name="e_wo_entrp">    -28.34036733 </i>
    <i name="e_0_energy">    -28.34036733 </i>
   </energy>
  </scstep>
  <scstep>
   <time name="diag">    0.67    0.67</time>
   <time name="diis">    3.30    3.32</time>
   <time name="orth">    0.02    0.02</time>
   <time name="total">    7.28    7.34</time>
   <energy>
    <i name="e_fr_energy">    -28.34040851 </i>
    <i name="e_wo_entrp">    -28.34040851 </i>
    <i name="e_0_energy">    -28.34040851 </i>
   </energy>
  </scstep>
  <scstep>
   <time name="diag">    0.67    0.67</time>
   <time name="diis">    3.81    3.91</time>
   <time name="orth">    0.02    0.02</time>
   <time name="total">    7.82    7.93</time>
   <energy>
    <i name="e_fr_energy">    -28.34044985 </i>
    <i name="e_wo_entrp">    -28.34044985 </i>
    <i name="e_0_energy">    -28.34044985 </i>
   </energy>
  </scstep>
  <scstep>
   <time name="diag">    0.67    0.67</time>
   <time name="diis">    3.86    3.87</time>
   <time name="orth">    0.02    0.02</time>
   <time name="total">    7.90    7.93</time>
   <energy>
    <i name="e_fr_energy">    -28.34049160 </i>
    <i name="e_wo_entrp">    -28.34049160 </i>
    <i name="e_0_energy">    -28.34049160 </i>
   </energy>
  </scstep>
  <scstep>
   <time name="diag">    0.66    0.66</time>
   <time name="diis">    3.73    3.74</time>
   <time name="orth">    0.02    0.02</time>
   <time name="total">    7.79    7.81</time>
   <energy>
    <i name="e_fr_energy">    -28.34051021 </i>
    <i name="e_wo_entrp">    -28.34051021 </i>
    <i name="e_0_energy">    -28.34051021 </i>
   </energy>
  </scstep>
  <scstep>
   <time name="diag">    0.67    0.68</time>
   <time name="diis">    3.70    3.71</time>
   <time name="orth">    0.03    0.03</time>
   <time name="total">    7.85    7.87</time>
   <energy>
    <i name="e_fr_energy">    -28.34052361 </i>
    <i name="e_wo_entrp">    -28.34052361 </i>
    <i name="e_0_energy">    -28.34052361 </i>
   </energy>
  </scstep>
  <scstep>
   <time name="diag">    0.67    0.67</time>
   <time name="diis">    3.32    3.32</time>
   <time name="orth">    0.02    0.02</time>
   <time name="total">    7.46    7.47</time>
   <energy>
    <i name="e_fr_energy">    -28.34052882 </i>
    <i name="e_wo_entrp">    -28.34052882 </i>
    <i name="e_0_energy">    -28.34052882 </i>
   </energy>
  </scstep>
  <scstep>
   <time name="diag">    0.67    0.67</time>
   <time name="diis">    4.19    4.20</time>
   <time name="orth">    0.02    0.02</time>
   <time name="total">    8.31    8.31</time>
   <energy>
    <i name="e_fr_energy">    -28.34053063 </i>
    <i name="e_wo_entrp">    -28.34053063 </i>
    <i name="e_0_energy">    -28.34053063 </i>
   </energy>
  </scstep>
  <scstep>
   <time name="diag">    0.67    0.67</time>
   <time name="diis">    2.93    2.94</time>
   <time name="orth">    0.02    0.02</time>
   <time name="total">    7.10    7.12</time>
   <energy>
    <i name="e_fr_energy">    -28.34053229 </i>
    <i name="e_wo_entrp">    -28.34053229 </i>
    <i name="e_0_energy">    -28.34053229 </i>
   </energy>
  </scstep>
  <scstep>
   <time name="diag">    0.67    0.67</time>
   <time name="diis">    3.25    3.25</time>
   <time name="orth">    0.02    0.02</time>
   <time name="total">    7.45    7.46</time>
   <energy>
    <i name="e_fr_energy">    -28.34053299 </i>
    <i name="e_wo_entrp">    -28.34053299 </i>
    <i name="e_0_energy">    -28.34053299 </i>
   </energy>
  </scstep>
  <scstep>
   <time name="diag">    0.67    0.70</time>
   <time name="diis">    2.74    2.75</time>
   <time name="orth">    0.02    0.02</time>
   <time name="total">    6.94    7.02</time>
   <energy>
    <i name="e_fr_energy">    -28.34053323 </i>
    <i name="e_wo_entrp">    -28.34053323 </i>
    <i name="e_0_energy">    -28.34053323 </i>
   </energy>
  </scstep>
  <scstep>
   <time name="diag">    0.67    0.67</time>
   <time name="diis">    2.60    2.60</time>
   <time name="orth">    0.02    0.02</time>
   <time name="total">    6.79    6.80</time>
   <energy>
    <i name="e_fr_energy">    -28.34053342 </i>
    <i name="e_wo_entrp">    -28.34053342 </i>
    <i name="e_0_energy">    -28.34053342 </i>
   </energy>
  </scstep>
  <scstep>
   <time name="diag">    0.67    0.67</time>
   <time name="diis">    2.59    2.60</time>
   <time name="orth">    0.02    0.02</time>
   <time name="total">    6.79    6.80</time>
   <energy>
    <i name="e_fr_energy">    -28.34053350 </i>
    <i name="e_wo_entrp">    -28.34053350 </i>
    <i name="e_0_energy">    -28.34053350 </i>
   </energy>
  </scstep>
  <scstep>
   <time name="diag">    0.67    0.67</time>
   <time name="diis">    2.46    2.46</time>
   <time name="orth">    0.02    0.02</time>
   <time name="total">    6.69    6.69</time>
   <energy>
    <i name="e_fr_energy">    -28.34053358 </i>
    <i name="e_wo_entrp">    -28.34053358 </i>
    <i name="e_0_energy">    -28.34053358 </i>
   </energy>
  </scstep>
  <scstep>
   <time name="diag">    0.67    0.67</time>
   <time name="diis">    2.42    2.43</time>
   <time name="orth">    0.02    0.02</time>
   <time name="total">    6.72    6.72</time>
   <energy>
    <i name="e_fr_energy">    -28.34053359 </i>
    <i name="e_wo_entrp">    -28.34053359 </i>
    <i name="e_0_energy">    -28.34053359 </i>
   </energy>
  </scstep>
  <scstep>
   <time name="diag">    0.67    0.67</time>
   <time name="diis">    2.69    2.70</time>
   <time name="orth">    0.02    0.02</time>
   <time name="total">    6.19    6.20</time>
   <energy>
    <i name="alphaZ">      0.21758540 </i>
    <i name="ewald">    239.95241110 </i>
    <i name="hartreedc">  -1030.15220319 </i>
    <i name="XCdc">     63.97101292 </i>
    <i name="pawpsdc">   5065.21154754 </i>
    <i name="pawaedc">  -5068.09566195 </i>
    <i name="eentropy">     -0.00000000 </i>
    <i name="bandstr">   -214.14889412 </i>
    <i name="atom">    914.70366869 </i>
    <i name="e_fr_energy">    -28.34053360 </i>
    <i name="e_wo_entrp">    -28.34053360 </i>
    <i name="e_0_energy">    -28.34053360 </i>
   </energy>
  </scstep>
  <structure>
   <crystal>
    <varray name="basis" >
     <v>      30.00000000       0.00000000       0.00000000 </v>
     <v>       0.00000000      10.00000000       0.00000000 </v>
     <v>       0.00000000       0.00000000      10.00000000 </v>
    </varray>
    <i name="volume">   3000.00000000 </i>
    <varray name="rec_basis" >
     <v>       0.03333333       0.00000000       0.00000000 </v>
     <v>       0.00000000       0.10000000       0.00000000 </v>
     <v>       0.00000000       0.00000000       0.10000000 </v>
    </varray>
   </crystal>
   <varray name="positions" >
    <v>       0.22186896       0.15710957       0.17600000 </v>
    <v>       0.95513104       0.15710957       0.17600000 </v>
    <v>       0.23254413       0.25541218       0.17439231 </v>
    <v>       0.18847255       0.16672783       0.17649328 </v>
    <v>       0.94612303       0.09941802       0.25610440 </v>
    <v>       0.94624850       0.09907990       0.09607226 </v>
   </varray>
  </structure>
  <varray name="forces" >
   <v>      -0.72571355       2.46869906      -0.03078962 </v>
   <v>      -1.08288126      -2.32911321       0.01506829 </v>
   <v>      -0.80648541      -2.36288334       0.03887881 </v>
   <v>       1.53037320      -0.10569050      -0.00808685 </v>
   <v>       0.54832807       1.16502672      -1.73077848 </v>
   <v>       0.53637895       1.16396128       1.71570785 </v>
  </varray>
  <varray name="stress" >
   <v>      -1.14406346      -0.68026938       0.01657923 </v>
   <v>      -0.68026938      -1.99780367       0.02151170 </v>
   <v>       0.01657923       0.02151170      -1.48898574 </v>
  </varray>
  <energy>
   <i name="e_fr_energy">    -28.34053360 </i>
   <i name="e_wo_entrp">    -28.34053360 </i>
   <i name="e_0_energy">     -0.00000000 </i>
  </energy>
  <time name="totalsc">  329.50  330.89</time>
  <eigenvalues>
   <array>
    <dimension dim="1">band</dimension>
    <dimension dim="2">kpoint</dimension>
    <dimension dim="3">spin</dimension>
    <field>eigene</field>
    <field>occ</field>
    <set>
     <set comment="spin 1">
      <set comment="kpoint 1">
       <r>  -24.8022    1.0000 </r>
       <r>  -24.6140    1.0000 </r>
       <r>  -12.6125    1.0000 </r>
       <r>  -12.3962    1.0000 </r>
       <r>   -9.3719    1.0000 </r>
       <r>   -9.1650    1.0000 </r>
       <r>   -7.1661    1.0000 </r>
       <r>   -6.9466    1.0000 </r>
       <r>   -1.2070    0.0000 </r>
       <r>   -0.9644    0.0000 </r>
       <r>    0.1761    0.0000 </r>
       <r>    0.2793    0.0000 </r>
      </set>
      <set comment="kpoint 2">
       <r>  -24.8022    1.0000 </r>
       <r>  -24.6140    1.0000 </r>
       <r>  -12.6125    1.0000 </r>
       <r>  -12.3962    1.0000 </r>
       <r>   -9.3719    1.0000 </r>
       <r>   -9.1650    1.0000 </r>
       <r>   -7.1661    1.0000 </r>
       <r>   -6.9466    1.0000 </r>
       <r>   -1.2070    0.0000 </r>
       <r>   -0.9643    0.0000 </r>
       <r>    0.1764    0.0000 </r>
       <r>    0.2791    0.0000 </r>
      </set>
     </set>
    </set>
   </array>
  </eigenvalues>
  <separator name="orbital magnetization" >
   <v name="MAGDIPOLOUT">      0.00000000      0.00000000      0.00000000</v>
  </separator>
  <dos>
   <i name="efermi">     -6.64578774 </i>
   <total>
    <array>
     <dimension dim="1">gridpoints</dimension>
     <dimension dim="2">spin</dimension>
     <field>energy</field>
     <field>total</field>
     <field>integrated</field>
     <set>
      <set comment="spin 1">
       <r>   -26.0563     0.0000     0.0000 </r>
       <r>   -25.9644     0.0000     0.0000 </r>
       <r>   -25.8724     0.0000     0.0000 </r>
       <r>   -25.7804     0.0000     0.0000 </r>
       <r>   -25.6885     0.0000     0.0000 </r>
       <r>   -25.5965     0.0000     0.0000 </r>
       <r>   -25.5045     0.0000     0.0000 </r>
       <r>   -25.4126     0.0000     0.0000 </r>
       <r>   -25.3206     0.0000     0.0000 </r>
       <r>   -25.2286     0.0000     0.0000 </r>
       <r>   -25.1367     0.0000     0.0000 </r>
       <r>   -25.0447     0.0000     0.0000 </r>
       <r>   -24.9527     0.0002     0.0000 </r>
       <r>   -24.8608     1.0639     0.0979 </r>
       <r>   -24.7688    16.9404     1.6558 </r>
       <r>   -24.6768     4.5590     2.0751 </r>
       <r>   -24.5849    16.4707     3.5898 </r>
       <r>   -24.4929     4.4534     3.9994 </r>
       <r>   -24.4009     0.0067     4.0000 </r>
       <r>   -24.3090     0.0000     4.0000 </r>
       <r>   -24.2170     0.0000     4.0000 </r>
       <r>   -24.1250     0.0000     4.0000 </r>
       <r>   -24.0331     0.0000     4.0000 </r>
       <r>   -23.9411     0.0000     4.0000 </r>
       <r>   -23.8491     0.0000     4.0000 </r>
       <r>   -23.7572     0.0000     4.0000 </r>
       <r>   -23.6652     0.0000     4.0000 </r>
       <r>   -23.5732     0.0000     4.0000 </r>
       <r>   -23.4813     0.0000     4.0000 </r>
       <r>   -23.3893     0.0000     4.0000 </r>
       <r>   -23.2973     0.0000     4.0000 </r>
       <r>   -23.2054     0.0000     4.0000 </r>
       <r>   -23.1134     0.0000     4.0000 </r>
       <r>   -23.0214     0.0000     4.0000 </r>
       <r>   -22.9295     0.0000     4.0000 </r>
       <r>   -22.8375     0.0000     4.0000 </r>
       <r>   -22.7455     0.0000     4.0000 </r>
       <r>   -22.6536     0.0000     4.0000 </r>
       <r>   -22.5616     0.0000     4.0000 </r>
       <r>   -22.4697     0.0000     4.0000 </r>
       <r>   -22.3777     0.0000     4.0000 </r>
       <r>   -22.2857     0.0000     4.0000 </r>
       <r>   -22.1938     0.0000     4.0000 </r>
       <r>   -22.1018     0.0000     4.0000 </r>
       <r>   -22.0098     0.0000     4.0000 </r>
       <r>   -21.9179     0.0000     4.0000 </r>
       <r>   -21.8259     0.0000     4.0000 </r>
       <r>   -21.7339     0.0000     4.0000 </r>
       <r>   -21.6420     0.0000     4.0000 </r>
       <r>   -21.5500     0.0000     4.0000 </r>
       <r>   -21.4580     0.0000     4.0000 </r>
       <r>   -21.3661     0.0000     4.0000 </r>
       <r>   -21.2741     0.0000     4.0000 </r>
       <r>   -21.1821     0.0000     4.0000 </r>
       <r>   -21.0902     0.0000     4.0000 </r>
       <r>   -20.9982     0.0000     4.0000 </r>
       <r>   -20.9062     0.0000     4.0000 </r>
       <r>   -20.8143     0.0000     4.0000 </r>
       <r>   -20.7223     0.0000     4.0000 </r>
       <r>   -20.6303     0.0000     4.0000 </r>
       <r>   -20.5384     0.0000     4.0000 </r>
       <r>   -20.4464     0.0000     4.0000 </r>
       <r>   -20.3544     0.0000     4.0000 </r>
       <r>   -20.2625     0.0000     4.0000 </r>
       <r>   -20.1705     0.0000     4.0000 </r>
       <r>   -20.0785     0.0000     4.0000 </r>
       <r>   -19.9866     0.0000     4.0000 </r>
       <r>   -19.8946     0.0000     4.0000 </r>
       <r>   -19.8026     0.0000     4.0000 </r>
       <r>   -19.7107     0.0000     4.0000 </r>
       <r>   -19.6187     0.0000     4.0000 </r>
       <r>   -19.5267     0.0000     4.0000 </r>
       <r>   -19.4348     0.0000     4.0000 </r>
       <r>   -19.3428     0.0000     4.0000 </r>
       <r>   -19.2508     0.0000     4.0000 </r>
       <r>   -19.1589     0.0000     4.0000 </r>
       <r>   -19.0669     0.0000     4.0000 </r>
       <r>   -18.9750     0.0000     4.0000 </r>
       <r>   -18.8830     0.0000     4.0000 </r>
       <r>   -18.7910     0.0000     4.0000 </r>
       <r>   -18.6991     0.0000     4.0000 </r>
       <r>   -18.6071     0.0000     4.0000 </r>
       <r>   -18.5151     0.0000     4.0000 </r>
       <r>   -18.4232     0.0000     4.0000 </r>
       <r>   -18.3312     0.0000     4.0000 </r>
       <r>   -18.2392     0.0000     4.0000 </r>
       <r>   -18.1473     0.0000     4.0000 </r>
       <r>   -18.0553     0.0000     4.0000 </r>
       <r>   -17.9633     0.0000     4.0000 </r>
       <r>   -17.8714     0.0000     4.0000 </r>
       <r>   -17.7794     0.0000     4.0000 </r>
       <r>   -17.6874     0.0000     4.0000 </r>
       <r>   -17.5955     0.0000     4.0000 </r>
       <r>   -17.5035     0.0000     4.0000 </r>
       <r>   -17.4115     0.0000     4.0000 </r>
       <r>   -17.3196     0.0000     4.0000 </r>
       <r>   -17.2276     0.0000     4.0000 </r>
       <r>   -17.1356     0.0000     4.0000 </r>
       <r>   -17.0437     0.0000     4.0000 </r>
       <r>   -16.9517     0.0000     4.0000 </r>
       <r>   -16.8597     0.0000     4.0000 </r>
       <r>   -16.7678     0.0000     4.0000 </r>
       <r>   -16.6758     0.0000     4.0000 </r>
       <r>   -16.5838     0.0000     4.0000 </r>
       <r>   -16.4919     0.0000     4.0000 </r>
       <r>   -16.3999     0.0000     4.0000 </r>
       <r>   -16.3079     0.0000     4.0000 </r>
       <r>   -16.2160     0.0000     4.0000 </r>
       <r>   -16.1240     0.0000     4.0000 </r>
       <r>   -16.0320     0.0000     4.0000 </r>
       <r>   -15.9401     0.0000     4.0000 </r>
       <r>   -15.8481     0.0000     4.0000 </r>
       <r>   -15.7561     0.0000     4.0000 </r>
       <r>   -15.6642     0.0000     4.0000 </r>
       <r>   -15.5722     0.0000     4.0000 </r>
       <r>   -15.4803     0.0000     4.0000 </r>
       <r>   -15.3883     0.0000     4.0000 </r>
       <r>   -15.2963     0.0000     4.0000 </r>
       <r>   -15.2044     0.0000     4.0000 </r>
       <r>   -15.1124     0.0000     4.0000 </r>
       <r>   -15.0204     0.0000     4.0000 </r>
       <r>   -14.9285     0.0000     4.0000 </r>
       <r>   -14.8365     0.0000     4.0000 </r>
       <r>   -14.7445     0.0000     4.0000 </r>
       <r>   -14.6526     0.0000     4.0000 </r>
       <r>   -14.5606     0.0000     4.0000 </r>
       <r>   -14.4686     0.0000     4.0000 </r>
       <r>   -14.3767     0.0000     4.0000 </r>
       <r>   -14.2847     0.0000     4.0000 </r>
       <r>   -14.1927     0.0000     4.0000 </r>
       <r>   -14.1008     0.0000     4.0000 </r>
       <r>   -14.0088     0.0000     4.0000 </r>
       <r>   -13.9168     0.0000     4.0000 </r>
       <r>   -13.8249     0.0000     4.0000 </r>
       <r>   -13.7329     0.0000     4.0000 </r>
       <r>   -13.6409     0.0000     4.0000 </r>
       <r>   -13.5490     0.0000     4.0000 </r>
       <r>   -13.4570     0.0000     4.0000 </r>
       <r>   -13.3650     0.0000     4.0000 </r>
       <r>   -13.2731     0.0000     4.0000 </r>
       <r>   -13.1811     0.0000     4.0000 </r>
       <r>   -13.0891     0.0000     4.0000 </r>
       <r>   -12.9972     0.0000     4.0000 </r>
       <r>   -12.9052     0.0000     4.0000 </r>
       <r>   -12.8132     0.0000     4.0000 </r>
       <r>   -12.7213     0.0228     4.0021 </r>
       <r>   -12.6293     6.8796     4.6348 </r>
       <r>   -12.5373    14.4814     5.9666 </r>
       <r>   -12.4454     2.1451     6.1639 </r>
       <r>   -12.3534    17.5007     7.7733 </r>
       <r>   -12.2614     2.4633     7.9999 </r>
       <r>   -12.1695     0.0015     8.0000 </r>
       <r>   -12.0775     0.0000     8.0000 </r>
       <r>   -11.9856     0.0000     8.0000 </r>
       <r>   -11.8936     0.0000     8.0000 </r>
       <r>   -11.8016     0.0000     8.0000 </r>
       <r>   -11.7097     0.0000     8.0000 </r>
       <r>   -11.6177     0.0000     8.0000 </r>
       <r>   -11.5257     0.0000     8.0000 </r>
       <r>   -11.4338     0.0000     8.0000 </r>
       <r>   -11.3418     0.0000     8.0000 </r>
       <r>   -11.2498     0.0000     8.0000 </r>
       <r>   -11.1579     0.0000     8.0000 </r>
       <r>   -11.0659     0.0000     8.0000 </r>
       <r>   -10.9739     0.0000     8.0000 </r>
       <r>   -10.8820     0.0000     8.0000 </r>
       <r>   -10.7900     0.0000     8.0000 </r>
       <r>   -10.6980     0.0000     8.0000 </r>
       <r>   -10.6061     0.0000     8.0000 </r>
       <r>   -10.5141     0.0000     8.0000 </r>
       <r>   -10.4221     0.0000     8.0000 </r>
       <r>   -10.3302     0.0000     8.0000 </r>
       <r>   -10.2382     0.0000     8.0000 </r>
       <r>   -10.1462     0.0000     8.0000 </r>
       <r>   -10.0543     0.0000     8.0000 </r>
       <r>    -9.9623     0.0000     8.0000 </r>
       <r>    -9.8703     0.0000     8.0000 </r>
       <r>    -9.7784     0.0000     8.0000 </r>
       <r>    -9.6864     0.0000     8.0000 </r>
       <r>    -9.5944     0.0000     8.0000 </r>
       <r>    -9.5025     0.0024     8.0002 </r>
       <r>    -9.4105     2.9864     8.2749 </r>
       <r>    -9.3185    17.3316     9.8688 </r>
       <r>    -9.2266     2.3145    10.0816 </r>
       <r>    -9.1346    16.6221    11.6103 </r>
       <r>    -9.0426     4.2316    11.9995 </r>
       <r>    -8.9507     0.0058    12.0000 </r>
       <r>    -8.8587     0.0000    12.0000 </r>
       <r>    -8.7667     0.0000    12.0000 </r>
       <r>    -8.6748     0.0000    12.0000 </r>
       <r>    -8.5828     0.0000    12.0000 </r>
       <r>    -8.4909     0.0000    12.0000 </r>
       <r>    -8.3989     0.0000    12.0000 </r>
       <r>    -8.3069     0.0000    12.0000 </r>
       <r>    -8.2150     0.0000    12.0000 </r>
       <r>    -8.1230     0.0000    12.0000 </r>
       <r>    -8.0310     0.0000    12.0000 </r>
       <r>    -7.9391     0.0000    12.0000 </r>
       <r>    -7.8471     0.0000    12.0000 </r>
       <r>    -7.7551     0.0000    12.0000 </r>
       <r>    -7.6632     0.0000    12.0000 </r>
       <r>    -7.5712     0.0000    12.0000 </r>
       <r>    -7.4792     0.0000    12.0000 </r>
       <r>    -7.3873     0.0000    12.0000 </r>
       <r>    -7.2953     0.0028    12.0003 </r>
       <r>    -7.2033     3.1712    12.2919 </r>
       <r>    -7.1114    17.2487    13.8782 </r>
       <r>    -7.0194     1.7522    14.0393 </r>
       <r>    -6.9274    14.9192    15.4114 </r>
       <r>    -6.8355     6.3821    15.9983 </r>
       <r>    -6.7435     0.0182    16.0000 </r>
       <r>    -6.6515     0.0000    16.0000 </r>
       <r>    -6.5596     0.0000    16.0000 </r>
       <r>    -6.4676     0.0000    16.0000 </r>
       <r>    -6.3756     0.0000    16.0000 </r>
       <r>    -6.2837     0.0000    16.0000 </r>
       <r>    -6.1917     0.0000    16.0000 </r>
       <r>    -6.0997     0.0000    16.0000 </r>
       <r>    -6.0078     0.0000    16.0000 </r>
       <r>    -5.9158     0.0000    16.0000 </r>
       <r>    -5.8238     0.0000    16.0000 </r>
       <r>    -5.7319     0.0000    16.0000 </r>
       <r>    -5.6399     0.0000    16.0000 </r>
       <r>    -5.5479     0.0000    16.0000 </r>
       <r>    -5.4560     0.0000    16.0000 </r>
       <r>    -5.3640     0.0000    16.0000 </r>
       <r>    -5.2720     0.0000    16.0000 </r>
       <r>    -5.1801     0.0000    16.0000 </r>
       <r>    -5.0881     0.0000    16.0000 </r>
       <r>    -4.9962     0.0000    16.0000 </r>
       <r>    -4.9042     0.0000    16.0000 </r>
       <r>    -4.8122     0.0000    16.0000 </r>
       <r>    -4.7203     0.0000    16.0000 </r>
       <r>    -4.6283     0.0000    16.0000 </r>
       <r>    -4.5363     0.0000    16.0000 </r>
       <r>    -4.4444     0.0000    16.0000 </r>
       <r>    -4.3524     0.0000    16.0000 </r>
       <r>    -4.2604     0.0000    16.0000 </r>
       <r>    -4.1685     0.0000    16.0000 </r>
       <r>    -4.0765     0.0000    16.0000 </r>
       <r>    -3.9845     0.0000    16.0000 </r>
       <r>    -3.8926     0.0000    16.0000 </r>
       <r>    -3.8006     0.0000    16.0000 </r>
       <r>    -3.7086     0.0000    16.0000 </r>
       <r>    -3.6167     0.0000    16.0000 </r>
       <r>    -3.5247     0.0000    16.0000 </r>
       <r>    -3.4327     0.0000    16.0000 </r>
       <r>    -3.3408     0.0000    16.0000 </r>
       <r>    -3.2488     0.0000    16.0000 </r>
       <r>    -3.1568     0.0000    16.0000 </r>
       <r>    -3.0649     0.0000    16.0000 </r>
       <r>    -2.9729     0.0000    16.0000 </r>
       <r>    -2.8809     0.0000    16.0000 </r>
       <r>    -2.7890     0.0000    16.0000 </r>
       <r>    -2.6970     0.0000    16.0000 </r>
       <r>    -2.6050     0.0000    16.0000 </r>
       <r>    -2.5131     0.0000    16.0000 </r>
       <r>    -2.4211     0.0000    16.0000 </r>
       <r>    -2.3291     0.0000    16.0000 </r>
       <r>    -2.2372     0.0000    16.0000 </r>
       <r>    -2.1452     0.0000    16.0000 </r>
       <r>    -2.0532     0.0000    16.0000 </r>
       <r>    -1.9613     0.0000    16.0000 </r>
       <r>    -1.8693     0.0000    16.0000 </r>
       <r>    -1.7773     0.0000    16.0000 </r>
       <r>    -1.6854     0.0000    16.0000 </r>
       <r>    -1.5934     0.0000    16.0000 </r>
       <r>    -1.5015     0.0000    16.0000 </r>
       <r>    -1.4095     0.0000    16.0000 </r>
       <r>    -1.3175     0.0193    16.0018 </r>
       <r>    -1.2256     6.5037    16.5999 </r>
       <r>    -1.1336    14.8129    17.9622 </r>
       <r>    -1.0416     0.7249    18.0288 </r>
       <r>    -0.9497    14.0638    19.3222 </r>
       <r>    -0.8577     7.3420    19.9974 </r>
       <r>    -0.7657     0.0278    20.0000 </r>
       <r>    -0.6738     0.0000    20.0000 </r>
       <r>    -0.5818     0.0000    20.0000 </r>
       <r>    -0.4898     0.0000    20.0000 </r>
       <r>    -0.3979     0.0000    20.0000 </r>
       <r>    -0.3059     0.0000    20.0000 </r>
       <r>    -0.2139     0.0000    20.0000 </r>
       <r>    -0.1220     0.0000    20.0000 </r>
       <r>    -0.0300     0.0000    20.0000 </r>
       <r>     0.0620     0.0133    20.0012 </r>
       <r>     0.1539     5.7287    20.5281 </r>
       <r>     0.2459    19.2337    22.2969 </r>
       <r>     0.3379    17.4613    23.9028 </r>
       <r>     0.4298     1.0571    24.0000 </r>
       <r>     0.5218     0.0002    24.0000 </r>
       <r>     0.6138     0.0000    24.0000 </r>
       <r>     0.7057     0.0000    24.0000 </r>
       <r>     0.7977     0.0000    24.0000 </r>
       <r>     0.8897     0.0000    24.0000 </r>
       <r>     0.9816     0.0000    24.0000 </r>
       <r>     1.0736     0.0000    24.0000 </r>
       <r>     1.1656     0.0000    24.0000 </r>
       <r>     1.2575     0.0000    24.0000 </r>
       <r>     1.3495     0.0000    24.0000 </r>
       <r>     1.4415     0.0000    24.0000 </r>
       <r>     1.5334     0.0000    24.0000 </r>
      </set>
     </set>
    </array>
   </total>
  </dos>
 </calculation>
 <structure name="finalpos" >
  <crystal>
   <varray name="basis" >
    <v>      30.00000000       0.00000000       0.00000000 </v>
    <v>       0.00000000      10.00000000       0.00000000 </v>
    <v>       0.00000000       0.00000000      10.00000000 </v>
   </varray>
   <i name="volume">   3000.00000000 </i>
   <varray name="rec_basis" >
    <v>       0.03333333       0.00000000       0.00000000 </v>
    <v>       0.00000000       0.10000000       0.00000000 </v>
    <v>       0.00000000       0.00000000       0.10000000 </v>
   </varray>
  </crystal>
  <varray name="positions" >
   <v>       0.22186896       0.15710957       0.17600000 </v>
   <v>       0.95513104       0.15710957       0.17600000 </v>
   <v>       0.23254413       0.25541218       0.17439231 </v>
   <v>       0.18847255       0.16672783       0.17649328 </v>
   <v>       0.94612303       0.09941802       0.25610440 </v>
   <v>       0.94624850       0.09907990       0.09607226 </v>
  </varray>
 </structure>
</modeling>
