
     Program PWSCF v.5.4.0 starts on 22Sep2019 at 19: 2:42 

     This program is part of the open-source Quantum ESPRESSO suite
     for quantum simulation of materials; please cite
         "P. Giannozzi et al., J. Phys.:Condens. Matter 21 395502 (2009);
          URL http://www.quantum-espresso.org", 
     in publications or presentations arising from this work. More details at
     http://www.quantum-espresso.org/quote

           HOST :    @host@
           ARCH :    
             CC :    cc
            CPP :    cpp
            F90 :    mpif90
            F77 :    gfortran
         DFLAGS :    -D__GFORTRAN -D__STD_F95 -D__FFTW3 -D__MPI -D__PARA
      BLAS LIBS :    -lopenblas
    LAPACK LIBS :    -lopenblas
       FFT LIBS :    -lfftw3
      MASS LIBS :    

     Parallel version (MPI), running on    28 processors
     R & G space division:  proc/nbgrp/npool/nimage =      28
     Waiting for input...
     Reading input from standard input
Warning: card &IONS ignored
Warning: card / ignored
Warning: card &CELL ignored
Warning: card / ignored

     Current dimensions of program PWSCF are:
     Max number of different atomic species (ntypx) = 10
     Max number of k-points (npk) =  40000
     Max angular momentum in pseudopotentials (lmaxx) =  3

     IMPORTANT: XC functional enforced from input :
     Exchange-correlation      = PBE ( 1  4  3  4 0 0)
     Any further DFT definition will be discarded
     Please, verify this is what you really want


     gamma-point specific algorithms are used

     Subspace diagonalization in iterative solution of the eigenvalue problem:
     a serial algorithm will be used


     Parallelization info
     --------------------
     sticks:   dense  smooth     PW     G-vecs:    dense   smooth      PW
     Min         445     445    110                37558    37558    4694
     Max         448     448    112                37564    37564    4708
     Sum       12517   12517   3125              1051747  1051747  131683
     Tot        6259    6259   1563



     bravais-lattice index     =            1
     lattice parameter (alat)  =      18.8973  a.u.
     unit-cell volume          =    6748.3346 (a.u.)^3
     number of atoms/cell      =            5
     number of atomic types    =            2
     number of electrons       =         8.00
     number of Kohn-Sham states=            4
     kinetic-energy cutoff     =     110.0000  Ry
     charge density cutoff     =     440.0000  Ry
     convergence threshold     =      1.0E-06
     mixing beta               =       0.5000
     number of iterations used =            8  plain     mixing
     Exchange-correlation      = PBE ( 1  4  3  4 0 0)

     celldm(1)=  18.897261  celldm(2)=   0.000000  celldm(3)=   0.000000
     celldm(4)=   0.000000  celldm(5)=   0.000000  celldm(6)=   0.000000

     crystal axes: (cart. coord. in units of alat)
               a(1) = (   1.000000   0.000000   0.000000 )  
               a(2) = (   0.000000   1.000000   0.000000 )  
               a(3) = (   0.000000   0.000000   1.000000 )  

     reciprocal axes: (cart. coord. in units 2 pi/alat)
               b(1) = (  1.000000  0.000000  0.000000 )  
               b(2) = (  0.000000  1.000000  0.000000 )  
               b(3) = (  0.000000  0.000000  1.000000 )  


     PseudoPot. # 1 for  H read from file:
     ../pseudo/H.tm.pbe.UPF
     MD5 check sum: 4b614d66af87240b7a5107bfa527a767
     Pseudo is Norm-conserving, Zval =  1.0
     Generated using "atomic" code by A. Dal Corso  v.5.2.0
     Using radial grid of  929 points,  0 beta functions with: 

     PseudoPot. # 2 for  C read from file:
     ../pseudo/C.tm.pbe.UPF
     MD5 check sum: a4f27fcb9b24331b00ace8e732a7e062
     Pseudo is Norm-conserving, Zval =  4.0
     Generated using "atomic" code by A. Dal Corso  v.5.2.0
     Using radial grid of 1073 points,  1 beta functions with: 
                l(1) =   1

     atomic species   valence    mass     pseudopotential
        H              1.00     1.00000      H( 1.00)
        C              4.00     1.00000      C( 1.00)

     No symmetry found



   Cartesian axes

     site n.     atom                  positions (alat units)
         1           H   tau(   1) = (   0.5409890   0.4183270   0.3550200  )
         2           H   tau(   2) = (   0.4002140   0.4946610   0.4485110  )
         3           H   tau(   3) = (   0.5639800   0.5738000   0.4516740  )
         4           H   tau(   4) = (   0.5330170   0.4144880   0.5356330  )
         5           C   tau(   5) = (   0.5124680   0.4754150   0.4465420  )

     number of k points=     1
                       cart. coord. in units 2pi/alat
        k(    1) = (   0.0000000   0.0000000   0.0000000), wk =   2.0000000

     Dense  grid:   525874 G-vectors     FFT dimensions: ( 128, 128, 128)

     Largest allocated arrays     est. size (Mb)     dimensions
        Kohn-Sham Wavefunctions         0.14 Mb     (    2354,    4)
        NL pseudopotentials             0.11 Mb     (    2354,    3)
        Each V/rho on FFT grid          1.25 Mb     (   81920)
        Each G-vector array             0.14 Mb     (   18782)
        G-vector shells                 0.02 Mb     (    2785)
     Largest temporary arrays     est. size (Mb)     dimensions
        Auxiliary wavefunctions         0.29 Mb     (    2354,   16)
        Each subspace H/S matrix        0.00 Mb     (      16,   16)
        Each <psi_i|beta_j> matrix      0.00 Mb     (       3,    4)
        Arrays for rho mixing          10.00 Mb     (   81920,    8)

     Initial potential from superposition of free atoms
     Check: negative starting charge=   -0.000378

     starting charge    7.99992, renormalised to    8.00000

     negative rho (up, down):  3.781E-04 0.000E+00
     Starting wfc are    8 randomized atomic wfcs

     total cpu time spent up to now is        2.9 secs

     per-process dynamical memory:   430.8 Mb

     Self-consistent Calculation

     iteration #  1     ecut=   110.00 Ry     beta=0.50
     Davidson diagonalization with overlap
     ethr =  1.00E-02,  avg # of iterations =  2.0

     negative rho (up, down):  1.791E-04 0.000E+00

     total cpu time spent up to now is        3.4 secs

     total energy              =     -16.02419545 Ry
     Harris-Foulkes estimate   =     -16.38843743 Ry
     estimated scf accuracy    <       0.64841634 Ry

     iteration #  2     ecut=   110.00 Ry     beta=0.50
     Davidson diagonalization with overlap
     ethr =  8.11E-03,  avg # of iterations =  2.0

     negative rho (up, down):  9.496E-05 0.000E+00

     total cpu time spent up to now is        3.8 secs

     total energy              =     -16.15033378 Ry
     Harris-Foulkes estimate   =     -16.17044486 Ry
     estimated scf accuracy    <       0.05172327 Ry

     iteration #  3     ecut=   110.00 Ry     beta=0.50
     Davidson diagonalization with overlap
     ethr =  6.47E-04,  avg # of iterations =  1.0

     negative rho (up, down):  5.960E-06 0.000E+00

     total cpu time spent up to now is        4.3 secs

     total energy              =     -16.14900555 Ry
     Harris-Foulkes estimate   =     -16.15451809 Ry
     estimated scf accuracy    <       0.01160779 Ry

     iteration #  4     ecut=   110.00 Ry     beta=0.50
     Davidson diagonalization with overlap
     ethr =  1.45E-04,  avg # of iterations =  3.0

     negative rho (up, down):  4.237E-06 0.000E+00

     total cpu time spent up to now is        4.8 secs

     total energy              =     -16.15108632 Ry
     Harris-Foulkes estimate   =     -16.15366285 Ry
     estimated scf accuracy    <       0.00617727 Ry

     iteration #  5     ecut=   110.00 Ry     beta=0.50
     Davidson diagonalization with overlap
     ethr =  7.72E-05,  avg # of iterations =  2.0

     negative rho (up, down):  2.557E-06 0.000E+00

     total cpu time spent up to now is        5.3 secs

     total energy              =     -16.15147285 Ry
     Harris-Foulkes estimate   =     -16.15161918 Ry
     estimated scf accuracy    <       0.00041459 Ry

     iteration #  6     ecut=   110.00 Ry     beta=0.50
     Davidson diagonalization with overlap
     ethr =  5.18E-06,  avg # of iterations =  3.0

     negative rho (up, down):  2.131E-07 0.000E+00

     total cpu time spent up to now is        5.7 secs

     total energy              =     -16.15160907 Ry
     Harris-Foulkes estimate   =     -16.15160997 Ry
     estimated scf accuracy    <       0.00001207 Ry

     iteration #  7     ecut=   110.00 Ry     beta=0.50
     Davidson diagonalization with overlap
     ethr =  1.51E-07,  avg # of iterations =  3.0

     total cpu time spent up to now is        6.2 secs

     total energy              =     -16.15160871 Ry
     Harris-Foulkes estimate   =     -16.15161619 Ry
     estimated scf accuracy    <       0.00001662 Ry

     iteration #  8     ecut=   110.00 Ry     beta=0.50
     Davidson diagonalization with overlap
     ethr =  1.51E-07,  avg # of iterations =  2.0

     total cpu time spent up to now is        6.6 secs

     End of self-consistent calculation

          k = 0.0000 0.0000 0.0000 ( 65842 PWs)   bands (ev):

   -16.6792  -9.3233  -9.2635  -8.9240

     highest occupied level (ev):    -8.9240

!    total energy              =     -16.15161023 Ry
     Harris-Foulkes estimate   =     -16.15161073 Ry
     estimated scf accuracy    <       0.00000091 Ry

     The total energy is the sum of the following terms:

     one-electron contribution =     -39.63634830 Ry
     hartree contribution      =      20.63657084 Ry
     xc contribution           =      -6.28859710 Ry
     ewald contribution        =       9.13676434 Ry

     convergence has been achieved in   8 iterations

     Forces acting on atoms (Ry/au):

     atom    1 type  1   force =    -0.00727369    0.01649441    0.01851753
     atom    2 type  1   force =     0.04381162   -0.00740785   -0.01010396
     atom    3 type  1   force =    -0.00405735   -0.02104045   -0.00145201
     atom    4 type  1   force =     0.00914070    0.00406962   -0.00204246
     atom    5 type  2   force =    -0.04162128    0.00788427   -0.00491911

     Total force =     0.071614     Total SCF correction =     0.000766


     entering subroutine stress ...

          total   stress  (Ry/bohr**3)                   (kbar)     P=   -1.72
  -0.00001635   0.00000085   0.00000431         -2.40      0.12      0.63
   0.00000085  -0.00001143  -0.00000356          0.12     -1.68     -0.52
   0.00000431  -0.00000356  -0.00000725          0.63     -0.52     -1.07


     init_run     :      2.51s CPU      2.53s WALL (       1 calls)
     electrons    :      3.61s CPU      3.69s WALL (       1 calls)
     forces       :      0.91s CPU      0.91s WALL (       1 calls)
     stress       :      1.08s CPU      1.09s WALL (       1 calls)

     Called by init_run:
     wfcinit      :      0.19s CPU      0.19s WALL (       1 calls)
     potinit      :      1.00s CPU      1.02s WALL (       1 calls)

     Called by electrons:
     c_bands      :      1.42s CPU      1.44s WALL (       8 calls)
     sum_band     :      0.44s CPU      0.45s WALL (       8 calls)
     v_of_rho     :      1.73s CPU      1.77s WALL (       9 calls)
     mix_rho      :      0.20s CPU      0.21s WALL (       8 calls)

     Called by c_bands:
     init_us_2    :      0.04s CPU      0.04s WALL (      17 calls)
     regterg      :      1.39s CPU      1.40s WALL (       8 calls)

     Called by sum_band:

     Called by *egterg:
     h_psi        :      1.52s CPU      1.53s WALL (      27 calls)
     g_psi        :      0.01s CPU      0.01s WALL (      18 calls)
     rdiaghg      :      0.00s CPU      0.00s WALL (      26 calls)

     Called by h_psi:
     add_vuspsi   :      0.00s CPU      0.00s WALL (      27 calls)

     General routines
     calbec       :      0.19s CPU      0.19s WALL (      32 calls)
     fft          :      1.65s CPU      1.72s WALL (     106 calls)
     fftw         :      1.34s CPU      1.36s WALL (     120 calls)

     Parallel routines
     fft_scatter  :      1.26s CPU      1.32s WALL (     226 calls)

     PWSCF        :     8.47s CPU         8.65s WALL


   This run was terminated on:  19: 2:50  22Sep2019            

=------------------------------------------------------------------------------=
   JOB DONE.
=------------------------------------------------------------------------------=
