   6   6   0   0
  0.5000000E+03  0.3000000E-08  0.1000000E-08  0.1000000E-08  0.5000000E-15
  1.000000000000000E-004
  CAR 
 unknown system                          
      1.61306288    -26.13694057  301     -6.60787564      1.00000000
    -26.137  0.0000E+00  0.0000E+00
    -26.044  0.0000E+00  0.0000E+00
    -25.952  0.0000E+00  0.0000E+00
    -25.859  0.0000E+00  0.0000E+00
    -25.767  0.0000E+00  0.0000E+00
    -25.674  0.0000E+00  0.0000E+00
    -25.582  0.0000E+00  0.0000E+00
    -25.489  0.0000E+00  0.0000E+00
    -25.397  0.0000E+00  0.0000E+00
    -25.304  0.0000E+00  0.0000E+00
    -25.212  0.0000E+00  0.0000E+00
    -25.119  0.5721E-10  0.5292E-11
    -25.027  0.2010E-03  0.1859E-04
    -24.934  0.1037E+01  0.9593E-01
    -24.842  0.1689E+02  0.1659E+01
    -24.749  0.3687E+01  0.2000E+01
    -24.657  0.2416E-01  0.2002E+01
    -24.564  0.6704E+01  0.2622E+01
    -24.472  0.1453E+02  0.3966E+01
    -24.379  0.3647E+00  0.4000E+01
    -24.287  0.2316E-04  0.4000E+01
    -24.194  0.2050E-11  0.4000E+01
    -24.102  0.0000E+00  0.4000E+01
    -24.009  0.0000E+00  0.4000E+01
    -23.917  0.0000E+00  0.4000E+01
    -23.824  0.0000E+00  0.4000E+01
    -23.732  0.0000E+00  0.4000E+01
    -23.639  0.0000E+00  0.4000E+01
    -23.547  0.0000E+00  0.4000E+01
    -23.454  0.0000E+00  0.4000E+01
    -23.362  0.0000E+00  0.4000E+01
    -23.269  0.0000E+00  0.4000E+01
    -23.177  0.0000E+00  0.4000E+01
    -23.084  0.0000E+00  0.4000E+01
    -22.992  0.0000E+00  0.4000E+01
    -22.899  0.0000E+00  0.4000E+01
    -22.807  0.0000E+00  0.4000E+01
    -22.714  0.0000E+00  0.4000E+01
    -22.622  0.0000E+00  0.4000E+01
    -22.529  0.0000E+00  0.4000E+01
    -22.437  0.0000E+00  0.4000E+01
    -22.344  0.0000E+00  0.4000E+01
    -22.252  0.0000E+00  0.4000E+01
    -22.159  0.0000E+00  0.4000E+01
    -22.067  0.0000E+00  0.4000E+01
    -21.974  0.0000E+00  0.4000E+01
    -21.882  0.0000E+00  0.4000E+01
    -21.789  0.0000E+00  0.4000E+01
    -21.697  0.0000E+00  0.4000E+01
    -21.604  0.0000E+00  0.4000E+01
    -21.512  0.0000E+00  0.4000E+01
    -21.419  0.0000E+00  0.4000E+01
    -21.327  0.0000E+00  0.4000E+01
    -21.234  0.0000E+00  0.4000E+01
    -21.142  0.0000E+00  0.4000E+01
    -21.049  0.0000E+00  0.4000E+01
    -20.957  0.0000E+00  0.4000E+01
    -20.864  0.0000E+00  0.4000E+01
    -20.772  0.0000E+00  0.4000E+01
    -20.679  0.0000E+00  0.4000E+01
    -20.587  0.0000E+00  0.4000E+01
    -20.494  0.0000E+00  0.4000E+01
    -20.402  0.0000E+00  0.4000E+01
    -20.309  0.0000E+00  0.4000E+01
    -20.217  0.0000E+00  0.4000E+01
    -20.124  0.0000E+00  0.4000E+01
    -20.032  0.0000E+00  0.4000E+01
    -19.939  0.0000E+00  0.4000E+01
    -19.847  0.0000E+00  0.4000E+01
    -19.754  0.0000E+00  0.4000E+01
    -19.662  0.0000E+00  0.4000E+01
    -19.569  0.0000E+00  0.4000E+01
    -19.477  0.0000E+00  0.4000E+01
    -19.384  0.0000E+00  0.4000E+01
    -19.292  0.0000E+00  0.4000E+01
    -19.199  0.0000E+00  0.4000E+01
    -19.107  0.0000E+00  0.4000E+01
    -19.014  0.0000E+00  0.4000E+01
    -18.922  0.0000E+00  0.4000E+01
    -18.829  0.0000E+00  0.4000E+01
    -18.737  0.0000E+00  0.4000E+01
    -18.644  0.0000E+00  0.4000E+01
    -18.552  0.0000E+00  0.4000E+01
    -18.459  0.0000E+00  0.4000E+01
    -18.367  0.0000E+00  0.4000E+01
    -18.274  0.0000E+00  0.4000E+01
    -18.182  0.0000E+00  0.4000E+01
    -18.089  0.0000E+00  0.4000E+01
    -17.997  0.0000E+00  0.4000E+01
    -17.904  0.0000E+00  0.4000E+01
    -17.812  0.0000E+00  0.4000E+01
    -17.719  0.0000E+00  0.4000E+01
    -17.627  0.0000E+00  0.4000E+01
    -17.534  0.0000E+00  0.4000E+01
    -17.442  0.0000E+00  0.4000E+01
    -17.349  0.0000E+00  0.4000E+01
    -17.257  0.0000E+00  0.4000E+01
    -17.164  0.0000E+00  0.4000E+01
    -17.072  0.0000E+00  0.4000E+01
    -16.979  0.0000E+00  0.4000E+01
    -16.887  0.0000E+00  0.4000E+01
    -16.794  0.0000E+00  0.4000E+01
    -16.702  0.0000E+00  0.4000E+01
    -16.609  0.0000E+00  0.4000E+01
    -16.517  0.0000E+00  0.4000E+01
    -16.424  0.0000E+00  0.4000E+01
    -16.332  0.0000E+00  0.4000E+01
    -16.239  0.0000E+00  0.4000E+01
    -16.147  0.0000E+00  0.4000E+01
    -16.054  0.0000E+00  0.4000E+01
    -15.962  0.0000E+00  0.4000E+01
    -15.869  0.0000E+00  0.4000E+01
    -15.777  0.0000E+00  0.4000E+01
    -15.684  0.0000E+00  0.4000E+01
    -15.592  0.0000E+00  0.4000E+01
    -15.499  0.0000E+00  0.4000E+01
    -15.407  0.0000E+00  0.4000E+01
    -15.314  0.0000E+00  0.4000E+01
    -15.222  0.0000E+00  0.4000E+01
    -15.129  0.0000E+00  0.4000E+01
    -15.037  0.0000E+00  0.4000E+01
    -14.944  0.0000E+00  0.4000E+01
    -14.852  0.0000E+00  0.4000E+01
    -14.759  0.0000E+00  0.4000E+01
    -14.667  0.0000E+00  0.4000E+01
    -14.574  0.0000E+00  0.4000E+01
    -14.482  0.0000E+00  0.4000E+01
    -14.389  0.0000E+00  0.4000E+01
    -14.297  0.0000E+00  0.4000E+01
    -14.204  0.0000E+00  0.4000E+01
    -14.112  0.0000E+00  0.4000E+01
    -14.019  0.0000E+00  0.4000E+01
    -13.927  0.0000E+00  0.4000E+01
    -13.834  0.0000E+00  0.4000E+01
    -13.742  0.0000E+00  0.4000E+01
    -13.649  0.0000E+00  0.4000E+01
    -13.557  0.0000E+00  0.4000E+01
    -13.464  0.0000E+00  0.4000E+01
    -13.372  0.0000E+00  0.4000E+01
    -13.279  0.0000E+00  0.4000E+01
    -13.187  0.0000E+00  0.4000E+01
    -13.094  0.0000E+00  0.4000E+01
    -13.002  0.0000E+00  0.4000E+01
    -12.909  0.1873E-08  0.4000E+01
    -12.817  0.1786E-02  0.4000E+01
    -12.724  0.2699E+01  0.4250E+01
    -12.632  0.1738E+02  0.5857E+01
    -12.539  0.1543E+01  0.6000E+01
    -12.447  0.8923E-02  0.6001E+01
    -12.354  0.4936E+01  0.6457E+01
    -12.262  0.1602E+02  0.7939E+01
    -12.169  0.6601E+00  0.8000E+01
    -12.077  0.7724E-04  0.8000E+01
    -11.984  0.1295E-10  0.8000E+01
    -11.892  0.0000E+00  0.8000E+01
    -11.799  0.0000E+00  0.8000E+01
    -11.707  0.0000E+00  0.8000E+01
    -11.614  0.0000E+00  0.8000E+01
    -11.522  0.0000E+00  0.8000E+01
    -11.429  0.0000E+00  0.8000E+01
    -11.337  0.0000E+00  0.8000E+01
    -11.244  0.0000E+00  0.8000E+01
    -11.152  0.0000E+00  0.8000E+01
    -11.059  0.0000E+00  0.8000E+01
    -10.967  0.0000E+00  0.8000E+01
    -10.874  0.0000E+00  0.8000E+01
    -10.782  0.0000E+00  0.8000E+01
    -10.689  0.0000E+00  0.8000E+01
    -10.597  0.0000E+00  0.8000E+01
    -10.504  0.0000E+00  0.8000E+01
    -10.412  0.0000E+00  0.8000E+01
    -10.319  0.0000E+00  0.8000E+01
    -10.227  0.0000E+00  0.8000E+01
    -10.134  0.0000E+00  0.8000E+01
    -10.042  0.0000E+00  0.8000E+01
     -9.949  0.0000E+00  0.8000E+01
     -9.857  0.0000E+00  0.8000E+01
     -9.764  0.0000E+00  0.8000E+01
     -9.672  0.2564E-08  0.8000E+01
     -9.579  0.2164E-02  0.8000E+01
     -9.487  0.2919E+01  0.8270E+01
     -9.394  0.1729E+02  0.9870E+01
     -9.302  0.1406E+01  0.1000E+02
     -9.209  0.2151E-01  0.1000E+02
     -9.117  0.6796E+01  0.1063E+02
     -9.024  0.1445E+02  0.1197E+02
     -8.932  0.3538E+00  0.1200E+02
     -8.839  0.2181E-04  0.1200E+02
     -8.747  0.1872E-11  0.1200E+02
     -8.654  0.0000E+00  0.1200E+02
     -8.562  0.0000E+00  0.1200E+02
     -8.469  0.0000E+00  0.1200E+02
     -8.377  0.0000E+00  0.1200E+02
     -8.284  0.0000E+00  0.1200E+02
     -8.192  0.0000E+00  0.1200E+02
     -8.099  0.0000E+00  0.1200E+02
     -8.007  0.0000E+00  0.1200E+02
     -7.914  0.0000E+00  0.1200E+02
     -7.822  0.0000E+00  0.1200E+02
     -7.729  0.0000E+00  0.1200E+02
     -7.637  0.0000E+00  0.1200E+02
     -7.544  0.0000E+00  0.1200E+02
     -7.452  0.4357E-07  0.1200E+02
     -7.359  0.1177E-01  0.1200E+02
     -7.267  0.5561E+01  0.1252E+02
     -7.174  0.1552E+02  0.1395E+02
     -7.082  0.5330E+00  0.1400E+02
     -6.989  0.2953E-01  0.1400E+02
     -6.897  0.7575E+01  0.1470E+02
     -6.804  0.1374E+02  0.1597E+02
     -6.712  0.2743E+00  0.1600E+02
     -6.619  0.1322E-04  0.1600E+02
     -6.527  0.8786E-12  0.1600E+02
     -6.434  0.0000E+00  0.1600E+02
     -6.342  0.0000E+00  0.1600E+02
     -6.249  0.0000E+00  0.1600E+02
     -6.157  0.0000E+00  0.1600E+02
     -6.064  0.0000E+00  0.1600E+02
     -5.972  0.0000E+00  0.1600E+02
     -5.879  0.0000E+00  0.1600E+02
     -5.787  0.0000E+00  0.1600E+02
     -5.694  0.0000E+00  0.1600E+02
     -5.602  0.0000E+00  0.1600E+02
     -5.509  0.0000E+00  0.1600E+02
     -5.417  0.0000E+00  0.1600E+02
     -5.324  0.0000E+00  0.1600E+02
     -5.232  0.0000E+00  0.1600E+02
     -5.139  0.0000E+00  0.1600E+02
     -5.047  0.0000E+00  0.1600E+02
     -4.954  0.0000E+00  0.1600E+02
     -4.862  0.0000E+00  0.1600E+02
     -4.769  0.0000E+00  0.1600E+02
     -4.677  0.0000E+00  0.1600E+02
     -4.584  0.0000E+00  0.1600E+02
     -4.492  0.0000E+00  0.1600E+02
     -4.399  0.0000E+00  0.1600E+02
     -4.307  0.0000E+00  0.1600E+02
     -4.214  0.0000E+00  0.1600E+02
     -4.122  0.0000E+00  0.1600E+02
     -4.029  0.0000E+00  0.1600E+02
     -3.937  0.0000E+00  0.1600E+02
     -3.844  0.0000E+00  0.1600E+02
     -3.752  0.0000E+00  0.1600E+02
     -3.659  0.0000E+00  0.1600E+02
     -3.567  0.0000E+00  0.1600E+02
     -3.474  0.0000E+00  0.1600E+02
     -3.382  0.0000E+00  0.1600E+02
     -3.289  0.0000E+00  0.1600E+02
     -3.197  0.0000E+00  0.1600E+02
     -3.104  0.0000E+00  0.1600E+02
     -3.012  0.0000E+00  0.1600E+02
     -2.919  0.0000E+00  0.1600E+02
     -2.827  0.0000E+00  0.1600E+02
     -2.734  0.0000E+00  0.1600E+02
     -2.642  0.0000E+00  0.1600E+02
     -2.549  0.0000E+00  0.1600E+02
     -2.457  0.0000E+00  0.1600E+02
     -2.364  0.0000E+00  0.1600E+02
     -2.272  0.0000E+00  0.1600E+02
     -2.179  0.0000E+00  0.1600E+02
     -2.087  0.0000E+00  0.1600E+02
     -1.994  0.0000E+00  0.1600E+02
     -1.902  0.0000E+00  0.1600E+02
     -1.809  0.0000E+00  0.1600E+02
     -1.717  0.0000E+00  0.1600E+02
     -1.624  0.0000E+00  0.1600E+02
     -1.532  0.5269E-08  0.1600E+02
     -1.439  0.3351E-02  0.1600E+02
     -1.347  0.3477E+01  0.1632E+02
     -1.254  0.1702E+02  0.1790E+02
     -1.162  0.1124E+01  0.1800E+02
     -1.069  0.2394E-03  0.1800E+02
     -0.977  0.1222E-02  0.1800E+02
     -0.884  0.2305E+01  0.1821E+02
     -0.792  0.1748E+02  0.1983E+02
     -0.699  0.1838E+01  0.2000E+02
     -0.607  0.7200E-03  0.2000E+02
     -0.514  0.4315E-09  0.2000E+02
     -0.422  0.0000E+00  0.2000E+02
     -0.329  0.0000E+00  0.2000E+02
     -0.237  0.0000E+00  0.2000E+02
     -0.144  0.1200E-14  0.2000E+02
     -0.052  0.1131E-06  0.2000E+02
      0.041  0.2038E-01  0.2000E+02
      0.133  0.6708E+01  0.2062E+02
      0.226  0.1454E+02  0.2197E+02
      0.318  0.4993E+01  0.2243E+02
      0.411  0.1620E+02  0.2393E+02
      0.503  0.7841E+00  0.2400E+02
      0.596  0.1252E-03  0.2400E+02
      0.688  0.3187E-10  0.2400E+02
      0.781  0.0000E+00  0.2400E+02
      0.873  0.0000E+00  0.2400E+02
      0.966  0.0000E+00  0.2400E+02
      1.058  0.0000E+00  0.2400E+02
      1.151  0.0000E+00  0.2400E+02
      1.243  0.0000E+00  0.2400E+02
      1.336  0.0000E+00  0.2400E+02
      1.428  0.0000E+00  0.2400E+02
      1.521  0.0000E+00  0.2400E+02
      1.613  0.0000E+00  0.2400E+02
