    6    6    1    1
  0.5000000E+03  0.3000000E-08  0.1000000E-08  0.1000000E-08  0.5000000E-15
  1.000000000000000E-004
  CAR 
 unknown system                          
     16      2     12
 
  0.0000000E+00  0.2500000E+00  0.2500000E+00  0.5000000E+00
    1      -24.875577   1.000000
    2      -24.547009   1.000000
    3      -12.683752   1.000000
    4      -12.328161   1.000000
    5       -9.447958   1.000000
    6       -9.099934   1.000000
    7       -7.243945   1.000000
    8       -6.883479   1.000000
    9       -1.311917   0.000000
   10       -0.840444   0.000000
   11        0.151450   0.000000
   12        0.351699   0.000000
 
  0.0000000E+00 -0.2500000E+00  0.2500000E+00  0.5000000E+00
    1      -24.875577   1.000000
    2      -24.547009   1.000000
    3      -12.683752   1.000000
    4      -12.328161   1.000000
    5       -9.447958   1.000000
    6       -9.099934   1.000000
    7       -7.243945   1.000000
    8       -6.883479   1.000000
    9       -1.311916   0.000000
   10       -0.840433   0.000000
   11        0.149508   0.000000
   12        0.341012   0.000000
