       N       E                     dE             d eps       ncg     rms          rms(c)
DAV:   1     0.152094487823E+03    0.15209E+03   -0.47313E+03    64   0.142E+03
DAV:   2     0.548374881782E+02   -0.97257E+02   -0.96226E+02    96   0.134E+02
DAV:   3    -0.207292264790E+02   -0.75567E+02   -0.74158E+02    88   0.131E+02
DAV:   4    -0.316779854034E+02   -0.10949E+02   -0.10932E+02    64   0.665E+01
DAV:   5    -0.319833661089E+02   -0.30538E+00   -0.30505E+00    64   0.156E+01    0.181E+01
RMM:   6    -0.286138446433E+02    0.33695E+01   -0.12114E+01    64   0.248E+01    0.178E+01
RMM:   7    -0.285605818448E+02    0.53263E-01   -0.12532E+00    76   0.548E+00    0.157E+01
RMM:   8    -0.294807994956E+02   -0.92022E+00   -0.71354E+00    64   0.225E+01    0.118E+01
RMM:   9    -0.283300232572E+02    0.11508E+01   -0.28115E+00    64   0.122E+01    0.394E+00
RMM:  10    -0.283447965355E+02   -0.14773E-01   -0.18382E-01    76   0.242E+00    0.191E+00
RMM:  11    -0.283410912635E+02    0.37053E-02   -0.15078E-02    72   0.593E-01    0.842E-01
RMM:  12    -0.283393928163E+02    0.16984E-02   -0.65002E-02    64   0.150E+00    0.564E-01
RMM:  13    -0.283418210796E+02   -0.24283E-02   -0.48590E-03    72   0.347E-01    0.575E-01
RMM:  14    -0.283497009332E+02   -0.78799E-02   -0.56554E-03    64   0.390E-01    0.597E-01
RMM:  15    -0.283499915171E+02   -0.29058E-03   -0.31159E-03    66   0.420E-01    0.214E-01
RMM:  16    -0.283515765439E+02   -0.15850E-02   -0.86062E-03    62   0.618E-01    0.206E-01
RMM:  17    -0.283543952974E+02   -0.28188E-02   -0.65536E-03    68   0.493E-01    0.460E-01
RMM:  18    -0.283539467231E+02    0.44857E-03   -0.23039E-04    68   0.115E-01    0.442E-01
RMM:  19    -0.283533499888E+02    0.59673E-03   -0.14149E-02    60   0.786E-01    0.166E-01
RMM:  20    -0.283534964678E+02   -0.14648E-03   -0.17607E-03    76   0.209E-01    0.329E-01
RMM:  21    -0.283533368409E+02    0.15963E-03   -0.96821E-05    64   0.534E-02    0.335E-01
RMM:  22    -0.283527049663E+02    0.63187E-03   -0.93447E-04    60   0.195E-01    0.170E-01
RMM:  23    -0.283525168332E+02    0.18813E-03   -0.96783E-04    74   0.183E-01    0.340E-02
RMM:  24    -0.283530128561E+02   -0.49602E-03   -0.34582E-04    65   0.105E-01    0.990E-02
RMM:  25    -0.283531712481E+02   -0.15839E-03   -0.28266E-04    66   0.100E-01    0.134E-01
RMM:  26    -0.283534455808E+02   -0.27433E-03   -0.37480E-04    52   0.127E-01    0.222E-02
RMM:  27    -0.283536214465E+02   -0.17587E-03   -0.30473E-04    66   0.101E-01    0.669E-02
RMM:  28    -0.283538015557E+02   -0.18011E-03   -0.63550E-05    62   0.524E-02    0.286E-02
RMM:  29    -0.283541952222E+02   -0.39367E-03   -0.38809E-05    66   0.331E-02    0.946E-03
RMM:  30    -0.283543560872E+02   -0.16086E-03   -0.14498E-05    63   0.231E-02    0.130E-02
RMM:  31    -0.283544593773E+02   -0.10329E-03   -0.96582E-06    65   0.207E-02    0.305E-03
RMM:  32    -0.283545020489E+02   -0.42672E-04   -0.23728E-06    66   0.699E-03    0.416E-03
RMM:  33    -0.283545209865E+02   -0.18938E-04   -0.40758E-07    58   0.300E-03    0.387E-03
RMM:  34    -0.283545285491E+02   -0.75626E-05   -0.24479E-07    65   0.316E-03    0.759E-04
RMM:  35    -0.283545341877E+02   -0.56386E-05   -0.11225E-07    57   0.182E-03    0.532E-04
RMM:  36    -0.283545360145E+02   -0.18268E-05   -0.82865E-08    52   0.164E-03    0.710E-04
RMM:  37    -0.283545368849E+02   -0.87042E-06   -0.15411E-08    46   0.728E-04    0.569E-04
RMM:  38    -0.283545375599E+02   -0.67500E-06   -0.27759E-08    44   0.871E-04    0.185E-04
RMM:  39    -0.283545377415E+02   -0.18164E-06   -0.65808E-09    42   0.471E-04    0.121E-04
RMM:  40    -0.283545378541E+02   -0.11257E-06   -0.41632E-09    39   0.378E-04    0.305E-05
RMM:  41    -0.283545379390E+02   -0.84914E-07   -0.42641E-09    38   0.379E-04    0.120E-04
RMM:  42    -0.283545379785E+02   -0.39461E-07   -0.18872E-09    39   0.258E-04    0.107E-04
RMM:  43    -0.283545380291E+02   -0.50661E-07   -0.13188E-09    32   0.219E-04    0.112E-04
RMM:  44    -0.283545380488E+02   -0.19698E-07   -0.22408E-09    40   0.327E-04    0.661E-05
RMM:  45    -0.283545380603E+02   -0.11477E-07   -0.10604E-09    42   0.221E-04    0.895E-05
RMM:  46    -0.283545380775E+02   -0.17181E-07   -0.43824E-10    30   0.173E-04    0.177E-04
RMM:  47    -0.283545381142E+02   -0.36703E-07   -0.14278E-09    36   0.263E-04    0.686E-05
RMM:  48    -0.283545381190E+02   -0.48458E-08   -0.24474E-10    35   0.150E-04
   1 F= -.28354538E+02 E0= -.28354538E+02  d E =-.179998E-14
