<?xml version="1.0" encoding="ISO-8859-1"?>
<modeling>
 <generator>
  <i name="program" type="string">vasp </i>
  <i name="version" type="string">5.4.4.18Apr17-6-g9f103f2a35  </i>
  <i name="subversion" type="string">(build Nov 25 2019 16:34:31) complex            parallel </i>
  <i name="platform" type="string">LinuxIFC </i>
  <i name="date" type="string">2021 04 06 </i>
  <i name="time" type="string">12:18:03 </i>
 </generator>
 <incar>
  <i type="string" name="PREC">a</i>
  <i type="string" name="ALGO">fast</i>
  <i name="AMIN">      0.00500000</i>
  <i type="int" name="NELM">   300</i>
  <i type="int" name="NELMIN">     4</i>
  <i type="int" name="IBRION">    -1</i>
  <i name="EDIFF">      0.00000001</i>
  <i type="int" name="NSW">     0</i>
  <i type="int" name="ISIF">     2</i>
  <i name="ENCUT">   1500.00000000</i>
  <i type="logical" name="LREAL"> F  </i>
  <i type="int" name="ISMEAR">     0</i>
  <i name="SIGMA">      0.05000000</i>
  <i name="KSPACING">      0.50000000</i>
  <i type="logical" name="KGAMMA"> F  </i>
  <i name="PSTRESS">      0.00000000</i>
  <i type="logical" name="LWAVE"> F  </i>
  <i type="logical" name="LCHARG"> F  </i>
  <v type="int" name="KPOINT_BSE">    -1     0     0     0</v>
  <i type="int" name="NELM">   300</i>
 </incar>
 <structure name="primitive_cell" >
  <crystal>
   <varray name="basis" >
    <v>      30.00000000       0.00000000       0.00000000 </v>
    <v>       0.00000000      10.00000000       0.00000000 </v>
    <v>       0.00000000       0.00000000      10.00000000 </v>
   </varray>
   <i name="volume">   3000.00000000 </i>
   <varray name="rec_basis" >
    <v>       0.03333333       0.00000000       0.00000000 </v>
    <v>       0.00000000       0.10000000       0.00000000 </v>
    <v>       0.00000000       0.00000000       0.10000000 </v>
   </varray>
  </crystal>
  <varray name="positions" >
   <v>       0.14186896       0.15710957       0.17600000 </v>
   <v>       0.10847255       0.16672783       0.17649328 </v>
   <v>       0.15254413       0.25541218       0.17439231 </v>
   <v>      -0.04486896       0.15710957       0.17600000 </v>
   <v>      -0.05375150       0.09907990       0.09607226 </v>
   <v>      -0.05387697       0.09941802       0.25610440 </v>
  </varray>
 </structure>
 <varray name="primitive_index" >
  <v type="int" >        1 </v>
  <v type="int" >        4 </v>
  <v type="int" >        3 </v>
  <v type="int" >        2 </v>
  <v type="int" >        6 </v>
  <v type="int" >        5 </v>
 </varray>
 <kpoints>
  <generation param="Monkhorst-Pack">
   <v type="int" name="divisions">       1        2        2 </v>
   <v name="usershift">      0.00000000       0.00000000       0.00000000 </v>
   <v name="genvec1">      1.00000000       0.00000000       0.00000000 </v>
   <v name="genvec2">      0.00000000       0.50000000       0.00000000 </v>
   <v name="genvec3">      0.00000000       0.00000000       0.50000000 </v>
   <v name="shift">      0.00000000       0.50000000       0.50000000 </v>
  </generation>
  <varray name="kpointlist" >
   <v>       0.00000000       0.25000000       0.25000000 </v>
   <v>       0.00000000      -0.25000000       0.25000000 </v>
  </varray>
  <varray name="weights" >
   <v>       0.50000000 </v>
   <v>       0.50000000 </v>
  </varray>
 </kpoints>
 <parameters>
  <separator name="general" >
   <i type="string" name="SYSTEM">unknown system</i>
   <i type="logical" name="LCOMPAT"> F  </i>
  </separator>
  <separator name="electronic" >
   <i type="string" name="PREC">a</i>
   <i name="ENMAX">   1500.00000000</i>
   <i name="ENAUG">   1000.00000000</i>
   <i name="EDIFF">      0.00000001</i>
   <i type="int" name="IALGO">    68</i>
   <i type="int" name="IWAVPR">    10</i>
   <i type="int" name="NBANDS">    12</i>
   <i name="NELECT">     16.00000000</i>
   <i type="int" name="TURBO">     0</i>
   <i type="int" name="IRESTART">     0</i>
   <i type="int" name="NREBOOT">     0</i>
   <i type="int" name="NMIN">     0</i>
   <i name="EREF">      0.00000000</i>
   <separator name="electronic smearing" >
    <i type="int" name="ISMEAR">     0</i>
    <i name="SIGMA">      0.05000000</i>
    <i name="KSPACING">      0.50000000</i>
    <i type="logical" name="KGAMMA"> F  </i>
   </separator>
   <separator name="electronic projectors" >
    <i type="logical" name="LREAL"> F  </i>
    <v name="ROPT">      0.00000000      0.00000000</v>
    <i type="int" name="LMAXPAW">  -100</i>
    <i type="int" name="LMAXMIX">     2</i>
    <i type="logical" name="NLSPLINE"> F  </i>
   </separator>
   <separator name="electronic startup" >
    <i type="int" name="ISTART">     0</i>
    <i type="int" name="ICHARG">     2</i>
    <i type="int" name="INIWAV">     1</i>
   </separator>
   <separator name="electronic spin" >
    <i type="int" name="ISPIN">     1</i>
    <i type="logical" name="LNONCOLLINEAR"> F  </i>
    <v name="MAGMOM">      1.00000000      1.00000000      1.00000000      1.00000000      1.00000000      1.00000000</v>
    <i name="NUPDOWN">     -1.00000000</i>
    <i type="logical" name="LSORBIT"> F  </i>
    <v name="SAXIS">      0.00000000      0.00000000      1.00000000</v>
    <i type="logical" name="LSPIRAL"> F  </i>
    <v name="QSPIRAL">      0.00000000      0.00000000      0.00000000</v>
    <i type="logical" name="LZEROZ"> F  </i>
   </separator>
   <separator name="electronic exchange-correlation" >
    <i type="logical" name="LASPH"> F  </i>
    <i type="logical" name="LMETAGGA"> F  </i>
   </separator>
   <separator name="electronic convergence" >
    <i type="int" name="NELM">   300</i>
    <i type="int" name="NELMDL">     0</i>
    <i type="int" name="NELMIN">     4</i>
    <i name="ENINI">   1500.00000000</i>
    <separator name="electronic convergence detail" >
     <i type="logical" name="LDIAG"> T  </i>
     <i type="logical" name="LSUBROT"> F  </i>
     <i name="WEIMIN">      0.00000000</i>
     <i name="EBREAK">      0.00000000</i>
     <i name="DEPER">      0.30000000</i>
     <i type="int" name="NRMM">     4</i>
     <i name="TIME">      0.40000000</i>
    </separator>
   </separator>
   <separator name="electronic mixer" >
    <i name="AMIX">      0.40000000</i>
    <i name="BMIX">      1.00000000</i>
    <i name="AMIN">      0.00500000</i>
    <i name="AMIX_MAG">      1.60000000</i>
    <i name="BMIX_MAG">      1.00000000</i>
    <separator name="electronic mixer details" >
     <i type="int" name="IMIX">     4</i>
     <i type="logical" name="MIXFIRST"> F  </i>
     <i type="int" name="MAXMIX">   -45</i>
     <i name="WC">    100.00000000</i>
     <i type="int" name="INIMIX">     1</i>
     <i type="int" name="MIXPRE">     1</i>
     <i type="int" name="MREMOVE">     5</i>
    </separator>
   </separator>
   <separator name="electronic dipolcorrection" >
    <i type="logical" name="LDIPOL"> F  </i>
    <i type="logical" name="LMONO"> F  </i>
    <i type="int" name="IDIPOL">     0</i>
    <i name="EPSILON">      1.00000000</i>
    <v name="DIPOL">   -100.00000000   -100.00000000   -100.00000000</v>
    <i name="EFIELD">      0.00000000</i>
   </separator>
  </separator>
  <separator name="grids" >
   <i type="int" name="NGX">   384</i>
   <i type="int" name="NGY">   126</i>
   <i type="int" name="NGZ">   126</i>
   <i type="int" name="NGXF">   768</i>
   <i type="int" name="NGYF">   252</i>
   <i type="int" name="NGZF">   252</i>
   <i type="logical" name="ADDGRID"> F  </i>
  </separator>
  <separator name="ionic" >
   <i type="int" name="NSW">     0</i>
   <i type="int" name="IBRION">    -1</i>
   <i type="int" name="MDALGO">     0</i>
   <i type="int" name="ISIF">     2</i>
   <i name="PSTRESS">      0.00000000</i>
   <i name="EDIFFG">      0.00000010</i>
   <i type="int" name="NFREE">     0</i>
   <i name="POTIM">      0.50000000</i>
   <i name="SMASS">     -3.00000000</i>
   <i name="SCALEE">      1.00000000</i>
  </separator>
  <separator name="ionic md" >
   <i name="TEBEG">      0.00010000</i>
   <i name="TEEND">      0.00010000</i>
   <i type="int" name="NBLOCK">     1</i>
   <i type="int" name="KBLOCK">     1</i>
   <i type="int" name="NPACO">   256</i>
   <i name="APACO">     16.00000000</i>
  </separator>
  <separator name="symmetry" >
   <i type="int" name="ISYM">     2</i>
   <i name="SYMPREC">      0.00001000</i>
  </separator>
  <separator name="dos" >
   <i type="int" name="LORBIT">     0</i>
   <v name="RWIGS">     -1.00000000     -1.00000000</v>
   <i type="int" name="NEDOS">   301</i>
   <i name="EMIN">     10.00000000</i>
   <i name="EMAX">    -10.00000000</i>
   <i name="EFERMI">      0.00000000</i>
  </separator>
  <separator name="writing" >
   <i type="int" name="NWRITE">     2</i>
   <i type="logical" name="LWAVE"> F  </i>
   <i type="logical" name="LDOWNSAMPLE"> F  </i>
   <i type="logical" name="LCHARG"> F  </i>
   <i type="logical" name="LPARD"> F  </i>
   <i type="logical" name="LVTOT"> F  </i>
   <i type="logical" name="LVHAR"> F  </i>
   <i type="logical" name="LELF"> F  </i>
   <i type="logical" name="LOPTICS"> F  </i>
   <v name="STM">      0.00000000      0.00000000      0.00000000      0.00000000      0.00000000      0.00000000      0.00000000</v>
  </separator>
  <separator name="performance" >
   <i type="int" name="NPAR">     2</i>
   <i type="int" name="NSIM">     4</i>
   <i type="int" name="NBLK">    -1</i>
   <i type="logical" name="LPLANE"> T  </i>
   <i type="logical" name="LSCALAPACK"> T  </i>
   <i type="logical" name="LSCAAWARE"> F  </i>
   <i type="logical" name="LSCALU"> F  </i>
   <i type="logical" name="LASYNC"> F  </i>
   <i type="logical" name="LORBITALREAL"> F  </i>
  </separator>
  <separator name="miscellaneous" >
   <i type="int" name="IDIOT">     3</i>
   <i type="int" name="ISPECIAL">     0</i>
   <i type="logical" name="LMUSIC"> F  </i>
   <v name="POMASS">     16.00000000      1.00000000</v>
   <v name="DARWINR">      0.00000000      0.00000000</v>
   <v name="DARWINV">      1.00000000      1.00000000</v>
   <i type="logical" name="LCORR"> T  </i>
  </separator>
  <i type="logical" name="GGA_COMPAT"> T  </i>
  <i type="logical" name="LBERRY"> F  </i>
  <i type="int" name="ICORELEVEL">     0</i>
  <i type="logical" name="LDAU"> F  </i>
  <i type="int" name="I_CONSTRAINED_M">     0</i>
  <separator name="electronic exchange-correlation" >
   <i type="string" name="GGA">--</i>
   <i type="int" name="VOSKOWN">     0</i>
   <i type="logical" name="LHFCALC"> F  </i>
   <i type="string" name="PRECFOCK"></i>
   <i type="logical" name="LSYMGRAD"> F  </i>
   <i type="logical" name="LHFONE"> F  </i>
   <i type="logical" name="LRHFCALC"> F  </i>
   <i type="logical" name="LTHOMAS"> F  </i>
   <i type="logical" name="LMODELHF"> F  </i>
   <i name="ENCUT4O">     -1.00000000</i>
   <i type="int" name="EXXOEP">     0</i>
   <i type="int" name="FOURORBIT">     0</i>
   <i name="AEXX">      0.00000000</i>
   <i name="HFALPHA">      0.00000000</i>
   <i name="MCALPHA">      0.00000000</i>
   <i name="ALDAX">      1.00000000</i>
   <i name="AGGAX">      1.00000000</i>
   <i name="ALDAC">      1.00000000</i>
   <i name="AGGAC">      1.00000000</i>
   <i type="int" name="NKREDX">     1</i>
   <i type="int" name="NKREDY">     1</i>
   <i type="int" name="NKREDZ">     1</i>
   <i type="logical" name="SHIFTRED"> F  </i>
   <i type="logical" name="ODDONLY"> F  </i>
   <i type="logical" name="EVENONLY"> F  </i>
   <i type="int" name="LMAXFOCK">     0</i>
   <i type="int" name="NMAXFOCKAE">     0</i>
   <i type="logical" name="LFOCKAEDFT"> F  </i>
   <i name="HFSCREEN">      0.00000000</i>
   <i name="HFSCREENC">      0.00000000</i>
   <i type="int" name="NBANDSGWLOW">     0</i>
  </separator>
  <separator name="vdW DFT" >
   <i type="logical" name="LUSE_VDW"> F  </i>
   <i name="Zab_VDW">     -0.84910000</i>
   <i name="PARAM1">      0.12340000</i>
   <i name="PARAM2">      1.00000000</i>
   <i name="PARAM3">      0.00000000</i>
  </separator>
  <separator name="model GW" >
   <i type="int" name="MODEL_GW">     0</i>
   <i name="MODEL_EPS0">    300.00000000</i>
   <i name="MODEL_ALPHA">      1.00000000</i>
  </separator>
  <separator name="linear response parameters" >
   <i type="logical" name="LEPSILON"> F  </i>
   <i type="logical" name="LRPA"> F  </i>
   <i type="logical" name="LNABLA"> F  </i>
   <i type="logical" name="LVEL"> F  </i>
   <i type="int" name="KINTER">     0</i>
   <i name="CSHIFT">      0.10000000</i>
   <i name="OMEGAMAX">     -1.00000000</i>
   <i name="DEG_THRESHOLD">      0.00200000</i>
   <i name="RTIME">     -0.10000000</i>
   <i name="WPLASMAI">      0.00000000</i>
   <v name="DFIELD">      0.00000000      0.00000000      0.00000000</v>
   <v name="WPLASMA">      0.00000000      0.00000000      0.00000000      0.00000000      0.00000000      0.00000000      0.00000000      0.00000000      0.00000000</v>
  </separator>
  <separator name="orbital magnetization" >
   <i type="logical" name="NUCIND"> F  </i>
   <v name="MAGPOS">      0.00000000      0.00000000      0.00000000</v>
   <i type="logical" name="LNICSALL"> T  </i>
   <i type="logical" name="ORBITALMAG"> F  </i>
   <i type="logical" name="LMAGBLOCH"> F  </i>
   <i type="logical" name="LCHIMAG"> F  </i>
   <i type="logical" name="LGAUGE"> T  </i>
   <i type="int" name="MAGATOM">     0</i>
   <v name="MAGDIPOL">      0.00000000      0.00000000      0.00000000</v>
   <v name="AVECCONST">      0.00000000      0.00000000      0.00000000</v>
  </separator>
  <separator name="response functions" >
   <i type="logical" name="LADDER"> F  </i>
   <i type="logical" name="LRPAFORCE"> F  </i>
   <i type="logical" name="LFXC"> F  </i>
   <i type="logical" name="LHARTREE"> T  </i>
   <i type="int" name="IBSE">     0</i>
   <v type="int" name="KPOINT">    -1     0     0     0</v>
   <i type="logical" name="LTCTE"> F  </i>
   <i type="logical" name="LTETE"> F  </i>
   <i type="logical" name="LTRIPLET"> F  </i>
   <i type="logical" name="LFXCEPS"> F  </i>
   <i type="logical" name="LFXHEG"> F  </i>
   <i type="int" name="NATURALO">     2</i>
   <i type="logical" name="L2ORDER"> F  </i>
   <i type="logical" name="LMP2LT"> F  </i>
   <i type="logical" name="LUSEW"> F  </i>
   <i name="ENCUTGW">     -2.00000000</i>
   <i name="ENCUTGWSOFT">     -2.00000000</i>
   <i name="ENCUTLF">     -1.00000000</i>
   <i type="int" name="LMAXMP2">    -1</i>
   <i name="SCISSOR">      0.00000000</i>
   <i type="int" name="NOMEGA">     0</i>
   <i type="int" name="NOMEGAR">     0</i>
   <i type="int" name="NBANDSGW">    -1</i>
   <i type="int" name="NBANDSO">    -1</i>
   <i type="int" name="NBANDSV">    -1</i>
   <i type="int" name="NELM">   300</i>
   <i type="int" name="NELMHF">     1</i>
   <i type="int" name="DIM">     3</i>
   <i type="int" name="ANTIRES">     0</i>
   <i name="OMEGAMAX">    -30.00000000</i>
   <i name="OMEGAMIN">    -30.00000000</i>
   <i name="OMEGATL">   -200.00000000</i>
   <i type="int" name="OMEGAGRID">   140</i>
   <i name="CSHIFT">     -0.10000000</i>
   <i type="logical" name="SELFENERGY"> F  </i>
   <i type="logical" name="LSPECTRAL"> F  </i>
   <i type="logical" name="LSPECTRALGW"> F  </i>
   <i type="logical" name="LSINGLES"> F  </i>
   <i type="logical" name="LFERMIGW"> F  </i>
   <i type="logical" name="ODDONLYGW"> F  </i>
   <i type="logical" name="EVENONLYGW"> F  </i>
   <i type="int" name="NKREDLFX">     1</i>
   <i type="int" name="NKREDLFY">     1</i>
   <i type="int" name="NKREDLFZ">     1</i>
   <i type="int" name="MAXMEM">  2800</i>
   <i type="int" name="TELESCOPE">     0</i>
   <i type="int" name="TAUPAR">     1</i>
   <i type="int" name="OMEGAPAR">    -1</i>
   <i name="LAMBDA">      1.00000000</i>
  </separator>
  <separator name="External order field" >
   <i name="OFIELD_KAPPA">      0.00000000</i>
   <v name="OFIELD_K">      0.00000000      0.00000000      0.00000000</v>
   <i name="OFIELD_Q6_NEAR">      0.00000000</i>
   <i name="OFIELD_Q6_FAR">      0.00000000</i>
   <i name="OFIELD_A">      0.00000000</i>
  </separator>
 </parameters>
 <atominfo>
  <atoms>       6 </atoms>
  <types>       2 </types>
  <array name="atoms" >
   <dimension dim="1">ion</dimension>
   <field type="string">element</field>
   <field type="int">atomtype</field>
   <set>
    <rc><c>O </c><c>   1</c></rc>
    <rc><c>O </c><c>   1</c></rc>
    <rc><c>H </c><c>   2</c></rc>
    <rc><c>H </c><c>   2</c></rc>
    <rc><c>H </c><c>   2</c></rc>
    <rc><c>H </c><c>   2</c></rc>
   </set>
  </array>
  <array name="atomtypes" >
   <dimension dim="1">type</dimension>
   <field type="int">atomspertype</field>
   <field type="string">element</field>
   <field>mass</field>
   <field>valence</field>
   <field type="string">pseudopotential</field>
   <set>
    <rc><c>   2</c><c>O </c><c>     16.00000000</c><c>      6.00000000</c><c>  PAW_PBE O_h 06Feb2004                 </c></rc>
    <rc><c>   4</c><c>H </c><c>      1.00000000</c><c>      1.00000000</c><c>  PAW_PBE H_h 06Feb2004                 </c></rc>
   </set>
  </array>
 </atominfo>
 <structure name="initialpos" >
  <crystal>
   <varray name="basis" >
    <v>      30.00000000       0.00000000       0.00000000 </v>
    <v>       0.00000000      10.00000000       0.00000000 </v>
    <v>       0.00000000       0.00000000      10.00000000 </v>
   </varray>
   <i name="volume">   3000.00000000 </i>
   <varray name="rec_basis" >
    <v>       0.03333333       0.00000000       0.00000000 </v>
    <v>       0.00000000       0.10000000       0.00000000 </v>
    <v>       0.00000000       0.00000000       0.10000000 </v>
   </varray>
  </crystal>
  <varray name="positions" >
   <v>       0.14186896       0.15710957       0.17600000 </v>
   <v>       0.95513104       0.15710957       0.17600000 </v>
   <v>       0.15254413       0.25541218       0.17439231 </v>
   <v>       0.10847255       0.16672783       0.17649328 </v>
   <v>       0.94612303       0.09941802       0.25610440 </v>
   <v>       0.94624850       0.09907990       0.09607226 </v>
  </varray>
 </structure>
 <calculation>
  <scstep>
   <time name="dav">    3.29    3.30</time>
   <time name="total">    6.03    6.07</time>
   <energy>
    <i name="alphaZ">      0.21758540 </i>
    <i name="ewald">    326.60001709 </i>
    <i name="hartreedc">  -1052.54540115 </i>
    <i name="XCdc">     60.59507317 </i>
    <i name="pawpsdc">    697.41634940 </i>
    <i name="pawaedc">   -699.85762974 </i>
    <i name="eentropy">     -0.00000000 </i>
    <i name="bandstr">    -95.03517504 </i>
    <i name="atom">    914.70366869 </i>
    <i name="e_fr_energy">    152.09448782 </i>
    <i name="e_wo_entrp">    152.09448782 </i>
    <i name="e_0_energy">    152.09448782 </i>
   </energy>
  </scstep>
  <scstep>
   <time name="dav">    4.45    4.49</time>
   <time name="total">    4.46    4.49</time>
   <energy>
    <i name="e_fr_energy">     54.83748818 </i>
    <i name="e_wo_entrp">     54.83748831 </i>
    <i name="e_0_energy">     54.83748825 </i>
   </energy>
  </scstep>
  <scstep>
   <time name="dav">    4.17    4.18</time>
   <time name="total">    4.17    4.18</time>
   <energy>
    <i name="e_fr_energy">    -20.72922648 </i>
    <i name="e_wo_entrp">    -20.72922648 </i>
    <i name="e_0_energy">    -20.72922648 </i>
   </energy>
  </scstep>
  <scstep>
   <time name="dav">    3.25    3.26</time>
   <time name="total">    3.25    3.26</time>
   <energy>
    <i name="e_fr_energy">    -31.67798540 </i>
    <i name="e_wo_entrp">    -31.67798540 </i>
    <i name="e_0_energy">    -31.67798540 </i>
   </energy>
  </scstep>
  <scstep>
   <time name="dav">    3.26    3.26</time>
   <time name="total">    3.79    3.80</time>
   <energy>
    <i name="e_fr_energy">    -31.98336611 </i>
    <i name="e_wo_entrp">    -31.98336611 </i>
    <i name="e_0_energy">    -31.98336611 </i>
   </energy>
  </scstep>
  <scstep>
   <time name="diag">    0.68    0.68</time>
   <time name="diis">    3.70    3.72</time>
   <time name="orth">    0.02    0.02</time>
   <time name="total">    7.65    7.71</time>
   <energy>
    <i name="e_fr_energy">    -28.61384464 </i>
    <i name="e_wo_entrp">    -28.61384464 </i>
    <i name="e_0_energy">    -28.61384464 </i>
   </energy>
  </scstep>
  <scstep>
   <time name="diag">    0.68    0.68</time>
   <time name="diis">    4.34    4.36</time>
   <time name="orth">    0.02    0.02</time>
   <time name="total">    8.33    8.38</time>
   <energy>
    <i name="e_fr_energy">    -28.56058184 </i>
    <i name="e_wo_entrp">    -28.56058184 </i>
    <i name="e_0_energy">    -28.56058184 </i>
   </energy>
  </scstep>
  <scstep>
   <time name="diag">    0.67    0.68</time>
   <time name="diis">    3.58    3.80</time>
   <time name="orth">    0.02    0.02</time>
   <time name="total">    7.60    7.83</time>
   <energy>
    <i name="e_fr_energy">    -29.48079950 </i>
    <i name="e_wo_entrp">    -29.48079950 </i>
    <i name="e_0_energy">    -29.48079950 </i>
   </energy>
  </scstep>
  <scstep>
   <time name="diag">    0.68    0.69</time>
   <time name="diis">    3.69    3.71</time>
   <time name="orth">    0.02    0.02</time>
   <time name="total">    7.66    7.71</time>
   <energy>
    <i name="e_fr_energy">    -28.33002326 </i>
    <i name="e_wo_entrp">    -28.33002326 </i>
    <i name="e_0_energy">    -28.33002326 </i>
   </energy>
  </scstep>
  <scstep>
   <time name="diag">    0.68    0.68</time>
   <time name="diis">    4.37    4.38</time>
   <time name="orth">    0.02    0.02</time>
   <time name="total">    8.40    8.42</time>
   <energy>
    <i name="e_fr_energy">    -28.34479654 </i>
    <i name="e_wo_entrp">    -28.34479654 </i>
    <i name="e_0_energy">    -28.34479654 </i>
   </energy>
  </scstep>
  <scstep>
   <time name="diag">    0.68    0.68</time>
   <time name="diis">    4.14    4.14</time>
   <time name="orth">    0.02    0.02</time>
   <time name="total">    8.16    8.17</time>
   <energy>
    <i name="e_fr_energy">    -28.34109126 </i>
    <i name="e_wo_entrp">    -28.34109126 </i>
    <i name="e_0_energy">    -28.34109126 </i>
   </energy>
  </scstep>
  <scstep>
   <time name="diag">    0.68    0.68</time>
   <time name="diis">    3.70    3.71</time>
   <time name="orth">    0.02    0.02</time>
   <time name="total">    7.73    7.74</time>
   <energy>
    <i name="e_fr_energy">    -28.33939282 </i>
    <i name="e_wo_entrp">    -28.33939282 </i>
    <i name="e_0_energy">    -28.33939282 </i>
   </energy>
  </scstep>
  <scstep>
   <time name="diag">    0.68    0.68</time>
   <time name="diis">    4.10    4.18</time>
   <time name="orth">    0.02    0.02</time>
   <time name="total">    8.17    8.25</time>
   <energy>
    <i name="e_fr_energy">    -28.34182108 </i>
    <i name="e_wo_entrp">    -28.34182108 </i>
    <i name="e_0_energy">    -28.34182108 </i>
   </energy>
  </scstep>
  <scstep>
   <time name="diag">    0.67    0.68</time>
   <time name="diis">    3.69    3.70</time>
   <time name="orth">    0.02    0.02</time>
   <time name="total">    7.73    7.74</time>
   <energy>
    <i name="e_fr_energy">    -28.34970093 </i>
    <i name="e_wo_entrp">    -28.34970093 </i>
    <i name="e_0_energy">    -28.34970093 </i>
   </energy>
  </scstep>
  <scstep>
   <time name="diag">    0.68    0.68</time>
   <time name="diis">    3.82    3.83</time>
   <time name="orth">    0.02    0.02</time>
   <time name="total">    7.84    7.85</time>
   <energy>
    <i name="e_fr_energy">    -28.34999152 </i>
    <i name="e_wo_entrp">    -28.34999152 </i>
    <i name="e_0_energy">    -28.34999152 </i>
   </energy>
  </scstep>
  <scstep>
   <time name="diag">    0.72    0.73</time>
   <time name="diis">    3.61    3.62</time>
   <time name="orth">    0.02    0.02</time>
   <time name="total">    7.66    7.73</time>
   <energy>
    <i name="e_fr_energy">    -28.35157654 </i>
    <i name="e_wo_entrp">    -28.35157654 </i>
    <i name="e_0_energy">    -28.35157654 </i>
   </energy>
  </scstep>
  <scstep>
   <time name="diag">    0.68    0.68</time>
   <time name="diis">    3.88    3.88</time>
   <time name="orth">    0.02    0.02</time>
   <time name="total">    7.82    7.87</time>
   <energy>
    <i name="e_fr_energy">    -28.35439530 </i>
    <i name="e_wo_entrp">    -28.35439530 </i>
    <i name="e_0_energy">    -28.35439530 </i>
   </energy>
  </scstep>
  <scstep>
   <time name="diag">    0.68    0.68</time>
   <time name="diis">    3.92    3.93</time>
   <time name="orth">    0.02    0.02</time>
   <time name="total">    7.91    7.92</time>
   <energy>
    <i name="e_fr_energy">    -28.35394672 </i>
    <i name="e_wo_entrp">    -28.35394672 </i>
    <i name="e_0_energy">    -28.35394672 </i>
   </energy>
  </scstep>
  <scstep>
   <time name="diag">    0.68    0.68</time>
   <time name="diis">    3.50    3.50</time>
   <time name="orth">    0.02    0.02</time>
   <time name="total">    7.48    7.49</time>
   <energy>
    <i name="e_fr_energy">    -28.35334999 </i>
    <i name="e_wo_entrp">    -28.35334999 </i>
    <i name="e_0_energy">    -28.35334999 </i>
   </energy>
  </scstep>
  <scstep>
   <time name="diag">    0.68    0.68</time>
   <time name="diis">    4.36    4.36</time>
   <time name="orth">    0.02    0.02</time>
   <time name="total">    8.35    8.35</time>
   <energy>
    <i name="e_fr_energy">    -28.35349647 </i>
    <i name="e_wo_entrp">    -28.35349647 </i>
    <i name="e_0_energy">    -28.35349647 </i>
   </energy>
  </scstep>
  <scstep>
   <time name="diag">    0.69    0.69</time>
   <time name="diis">    3.76    3.76</time>
   <time name="orth">    0.02    0.02</time>
   <time name="total">    7.75    7.76</time>
   <energy>
    <i name="e_fr_energy">    -28.35333684 </i>
    <i name="e_wo_entrp">    -28.35333684 </i>
    <i name="e_0_energy">    -28.35333684 </i>
   </energy>
  </scstep>
  <scstep>
   <time name="diag">    0.67    0.69</time>
   <time name="diis">    3.52    3.53</time>
   <time name="orth">    0.02    0.02</time>
   <time name="total">    7.55    7.58</time>
   <energy>
    <i name="e_fr_energy">    -28.35270497 </i>
    <i name="e_wo_entrp">    -28.35270497 </i>
    <i name="e_0_energy">    -28.35270497 </i>
   </energy>
  </scstep>
  <scstep>
   <time name="diag">    0.69    0.69</time>
   <time name="diis">    4.27    4.28</time>
   <time name="orth">    0.02    0.02</time>
   <time name="total">    8.39    8.44</time>
   <energy>
    <i name="e_fr_energy">    -28.35251683 </i>
    <i name="e_wo_entrp">    -28.35251683 </i>
    <i name="e_0_energy">    -28.35251683 </i>
   </energy>
  </scstep>
  <scstep>
   <time name="diag">    0.69    0.69</time>
   <time name="diis">    3.70    3.75</time>
   <time name="orth">    0.02    0.02</time>
   <time name="total">    7.66    7.79</time>
   <energy>
    <i name="e_fr_energy">    -28.35301286 </i>
    <i name="e_wo_entrp">    -28.35301286 </i>
    <i name="e_0_energy">    -28.35301286 </i>
   </energy>
  </scstep>
  <scstep>
   <time name="diag">    0.69    0.69</time>
   <time name="diis">    3.79    3.79</time>
   <time name="orth">    0.02    0.02</time>
   <time name="total">    7.80    7.86</time>
   <energy>
    <i name="e_fr_energy">    -28.35317125 </i>
    <i name="e_wo_entrp">    -28.35317125 </i>
    <i name="e_0_energy">    -28.35317125 </i>
   </energy>
  </scstep>
  <scstep>
   <time name="diag">    0.69    0.69</time>
   <time name="diis">    3.03    3.03</time>
   <time name="orth">    0.02    0.02</time>
   <time name="total">    7.07    7.07</time>
   <energy>
    <i name="e_fr_energy">    -28.35344558 </i>
    <i name="e_wo_entrp">    -28.35344558 </i>
    <i name="e_0_energy">    -28.35344558 </i>
   </energy>
  </scstep>
  <scstep>
   <time name="diag">    0.68    0.68</time>
   <time name="diis">    3.80    3.80</time>
   <time name="orth">    0.02    0.02</time>
   <time name="total">    7.86    7.87</time>
   <energy>
    <i name="e_fr_energy">    -28.35362145 </i>
    <i name="e_wo_entrp">    -28.35362145 </i>
    <i name="e_0_energy">    -28.35362145 </i>
   </energy>
  </scstep>
  <scstep>
   <time name="diag">    0.68    0.68</time>
   <time name="diis">    3.59    3.59</time>
   <time name="orth">    0.02    0.02</time>
   <time name="total">    7.66    7.67</time>
   <energy>
    <i name="e_fr_energy">    -28.35380156 </i>
    <i name="e_wo_entrp">    -28.35380156 </i>
    <i name="e_0_energy">    -28.35380156 </i>
   </energy>
  </scstep>
  <scstep>
   <time name="diag">    0.69    0.69</time>
   <time name="diis">    3.83    3.84</time>
   <time name="orth">    0.02    0.02</time>
   <time name="total">    7.92    7.92</time>
   <energy>
    <i name="e_fr_energy">    -28.35419522 </i>
    <i name="e_wo_entrp">    -28.35419522 </i>
    <i name="e_0_energy">    -28.35419522 </i>
   </energy>
  </scstep>
  <scstep>
   <time name="diag">    0.69    0.69</time>
   <time name="diis">    3.66    3.66</time>
   <time name="orth">    0.02    0.02</time>
   <time name="total">    7.76    7.77</time>
   <energy>
    <i name="e_fr_energy">    -28.35435609 </i>
    <i name="e_wo_entrp">    -28.35435609 </i>
    <i name="e_0_energy">    -28.35435609 </i>
   </energy>
  </scstep>
  <scstep>
   <time name="diag">    0.69    0.69</time>
   <time name="diis">    3.83    3.86</time>
   <time name="orth">    0.02    0.02</time>
   <time name="total">    7.92    8.01</time>
   <energy>
    <i name="e_fr_energy">    -28.35445938 </i>
    <i name="e_wo_entrp">    -28.35445938 </i>
    <i name="e_0_energy">    -28.35445938 </i>
   </energy>
  </scstep>
  <scstep>
   <time name="diag">    0.69    0.69</time>
   <time name="diis">    3.81    3.82</time>
   <time name="orth">    0.02    0.02</time>
   <time name="total">    7.94    7.94</time>
   <energy>
    <i name="e_fr_energy">    -28.35450205 </i>
    <i name="e_wo_entrp">    -28.35450205 </i>
    <i name="e_0_energy">    -28.35450205 </i>
   </energy>
  </scstep>
  <scstep>
   <time name="diag">    0.69    0.69</time>
   <time name="diis">    3.41    3.41</time>
   <time name="orth">    0.02    0.02</time>
   <time name="total">    7.57    7.58</time>
   <energy>
    <i name="e_fr_energy">    -28.35452099 </i>
    <i name="e_wo_entrp">    -28.35452099 </i>
    <i name="e_0_energy">    -28.35452099 </i>
   </energy>
  </scstep>
  <scstep>
   <time name="diag">    0.69    0.69</time>
   <time name="diis">    3.78    3.78</time>
   <time name="orth">    0.02    0.02</time>
   <time name="total">    7.86    7.98</time>
   <energy>
    <i name="e_fr_energy">    -28.35452855 </i>
    <i name="e_wo_entrp">    -28.35452855 </i>
    <i name="e_0_energy">    -28.35452855 </i>
   </energy>
  </scstep>
  <scstep>
   <time name="diag">    0.68    0.68</time>
   <time name="diis">    3.40    3.41</time>
   <time name="orth">    0.02    0.02</time>
   <time name="total">    7.55    7.57</time>
   <energy>
    <i name="e_fr_energy">    -28.35453419 </i>
    <i name="e_wo_entrp">    -28.35453419 </i>
    <i name="e_0_energy">    -28.35453419 </i>
   </energy>
  </scstep>
  <scstep>
   <time name="diag">    0.68    0.68</time>
   <time name="diis">    3.10    3.11</time>
   <time name="orth">    0.02    0.02</time>
   <time name="total">    7.28    7.29</time>
   <energy>
    <i name="e_fr_energy">    -28.35453601 </i>
    <i name="e_wo_entrp">    -28.35453601 </i>
    <i name="e_0_energy">    -28.35453601 </i>
   </energy>
  </scstep>
  <scstep>
   <time name="diag">    0.68    0.68</time>
   <time name="diis">    2.83    2.83</time>
   <time name="orth">    0.02    0.02</time>
   <time name="total">    6.99    7.00</time>
   <energy>
    <i name="e_fr_energy">    -28.35453688 </i>
    <i name="e_wo_entrp">    -28.35453688 </i>
    <i name="e_0_energy">    -28.35453688 </i>
   </energy>
  </scstep>
  <scstep>
   <time name="diag">    0.68    0.68</time>
   <time name="diis">    2.65    2.66</time>
   <time name="orth">    0.02    0.02</time>
   <time name="total">    6.88    6.89</time>
   <energy>
    <i name="e_fr_energy">    -28.35453756 </i>
    <i name="e_wo_entrp">    -28.35453756 </i>
    <i name="e_0_energy">    -28.35453756 </i>
   </energy>
  </scstep>
  <scstep>
   <time name="diag">    0.67    0.68</time>
   <time name="diis">    2.68    2.69</time>
   <time name="orth">    0.02    0.02</time>
   <time name="total">    6.93    6.95</time>
   <energy>
    <i name="e_fr_energy">    -28.35453774 </i>
    <i name="e_wo_entrp">    -28.35453774 </i>
    <i name="e_0_energy">    -28.35453774 </i>
   </energy>
  </scstep>
  <scstep>
   <time name="diag">    0.68    0.68</time>
   <time name="diis">    2.49    2.50</time>
   <time name="orth">    0.02    0.02</time>
   <time name="total">    6.74    6.76</time>
   <energy>
    <i name="e_fr_energy">    -28.35453785 </i>
    <i name="e_wo_entrp">    -28.35453785 </i>
    <i name="e_0_energy">    -28.35453785 </i>
   </energy>
  </scstep>
  <scstep>
   <time name="diag">    0.68    0.69</time>
   <time name="diis">    2.40    2.40</time>
   <time name="orth">    0.02    0.02</time>
   <time name="total">    6.66    6.67</time>
   <energy>
    <i name="e_fr_energy">    -28.35453794 </i>
    <i name="e_wo_entrp">    -28.35453794 </i>
    <i name="e_0_energy">    -28.35453794 </i>
   </energy>
  </scstep>
  <scstep>
   <time name="diag">    0.68    0.68</time>
   <time name="diis">    2.50    2.50</time>
   <time name="orth">    0.02    0.02</time>
   <time name="total">    6.81    6.82</time>
   <energy>
    <i name="e_fr_energy">    -28.35453798 </i>
    <i name="e_wo_entrp">    -28.35453798 </i>
    <i name="e_0_energy">    -28.35453798 </i>
   </energy>
  </scstep>
  <scstep>
   <time name="diag">    0.67    0.67</time>
   <time name="diis">    2.26    2.27</time>
   <time name="orth">    0.02    0.02</time>
   <time name="total">    6.49    6.49</time>
   <energy>
    <i name="e_fr_energy">    -28.35453803 </i>
    <i name="e_wo_entrp">    -28.35453803 </i>
    <i name="e_0_energy">    -28.35453803 </i>
   </energy>
  </scstep>
  <scstep>
   <time name="diag">    0.68    0.68</time>
   <time name="diis">    2.55    2.55</time>
   <time name="orth">    0.02    0.02</time>
   <time name="total">    6.86    6.87</time>
   <energy>
    <i name="e_fr_energy">    -28.35453805 </i>
    <i name="e_wo_entrp">    -28.35453805 </i>
    <i name="e_0_energy">    -28.35453805 </i>
   </energy>
  </scstep>
  <scstep>
   <time name="diag">    0.68    0.68</time>
   <time name="diis">    2.73    2.73</time>
   <time name="orth">    0.02    0.02</time>
   <time name="total">    7.06    7.07</time>
   <energy>
    <i name="e_fr_energy">    -28.35453806 </i>
    <i name="e_wo_entrp">    -28.35453806 </i>
    <i name="e_0_energy">    -28.35453806 </i>
   </energy>
  </scstep>
  <scstep>
   <time name="diag">    0.68    0.68</time>
   <time name="diis">    2.29    2.30</time>
   <time name="orth">    0.02    0.02</time>
   <time name="total">    6.63    6.64</time>
   <energy>
    <i name="e_fr_energy">    -28.35453808 </i>
    <i name="e_wo_entrp">    -28.35453808 </i>
    <i name="e_0_energy">    -28.35453808 </i>
   </energy>
  </scstep>
  <scstep>
   <time name="diag">    0.69    0.69</time>
   <time name="diis">    2.44    2.44</time>
   <time name="orth">    0.02    0.02</time>
   <time name="total">    6.77    6.79</time>
   <energy>
    <i name="e_fr_energy">    -28.35453811 </i>
    <i name="e_wo_entrp">    -28.35453811 </i>
    <i name="e_0_energy">    -28.35453811 </i>
   </energy>
  </scstep>
  <scstep>
   <time name="diag">    0.68    0.68</time>
   <time name="diis">    2.62    2.64</time>
   <time name="orth">    0.02    0.02</time>
   <time name="total">    6.13    6.16</time>
   <energy>
    <i name="alphaZ">      0.21758540 </i>
    <i name="ewald">    326.60001709 </i>
    <i name="hartreedc">  -1116.74287658 </i>
    <i name="XCdc">     63.97168716 </i>
    <i name="pawpsdc">   5059.41251775 </i>
    <i name="pawaedc">  -5062.29750750 </i>
    <i name="eentropy">     -0.00000000 </i>
    <i name="bandstr">   -214.21963013 </i>
    <i name="atom">    914.70366869 </i>
    <i name="e_fr_energy">    -28.35453812 </i>
    <i name="e_wo_entrp">    -28.35453812 </i>
    <i name="e_0_energy">    -28.35453812 </i>
   </energy>
  </scstep>
  <structure>
   <crystal>
    <varray name="basis" >
     <v>      30.00000000       0.00000000       0.00000000 </v>
     <v>       0.00000000      10.00000000       0.00000000 </v>
     <v>       0.00000000       0.00000000      10.00000000 </v>
    </varray>
    <i name="volume">   3000.00000000 </i>
    <varray name="rec_basis" >
     <v>       0.03333333       0.00000000       0.00000000 </v>
     <v>       0.00000000       0.10000000       0.00000000 </v>
     <v>       0.00000000       0.00000000       0.10000000 </v>
    </varray>
   </crystal>
   <varray name="positions" >
    <v>       0.14186896       0.15710957       0.17600000 </v>
    <v>       0.95513104       0.15710957       0.17600000 </v>
    <v>       0.15254413       0.25541218       0.17439231 </v>
    <v>       0.10847255       0.16672783       0.17649328 </v>
    <v>       0.94612303       0.09941802       0.25610440 </v>
    <v>       0.94624850       0.09907990       0.09607226 </v>
   </varray>
  </structure>
  <varray name="forces" >
   <v>      -0.71774581       2.46724676      -0.03082102 </v>
   <v>      -1.06740936      -2.32868786       0.01511780 </v>
   <v>      -0.81024592      -2.36537077       0.03894722 </v>
   <v>       1.51314853      -0.10142723      -0.00815031 </v>
   <v>       0.54708289       1.16466221      -1.72858345 </v>
   <v>       0.53516968       1.16357689       1.71348975 </v>
  </varray>
  <varray name="stress" >
   <v>      -1.17186254      -0.68204055       0.01655859 </v>
   <v>      -0.68204054      -1.99597327       0.02155107 </v>
   <v>       0.01655858       0.02155107      -1.48557206 </v>
  </varray>
  <energy>
   <i name="e_fr_energy">    -28.35453812 </i>
   <i name="e_wo_entrp">    -28.35453812 </i>
   <i name="e_0_energy">     -0.00000000 </i>
  </energy>
  <time name="totalsc">  352.95  354.53</time>
  <eigenvalues>
   <array>
    <dimension dim="1">band</dimension>
    <dimension dim="2">kpoint</dimension>
    <dimension dim="3">spin</dimension>
    <field>eigene</field>
    <field>occ</field>
    <set>
     <set comment="spin 1">
      <set comment="kpoint 1">
       <r>  -24.8756    1.0000 </r>
       <r>  -24.5470    1.0000 </r>
       <r>  -12.6838    1.0000 </r>
       <r>  -12.3282    1.0000 </r>
       <r>   -9.4480    1.0000 </r>
       <r>   -9.0999    1.0000 </r>
       <r>   -7.2439    1.0000 </r>
       <r>   -6.8835    1.0000 </r>
       <r>   -1.3119    0.0000 </r>
       <r>   -0.8404    0.0000 </r>
       <r>    0.1515    0.0000 </r>
       <r>    0.3517    0.0000 </r>
      </set>
      <set comment="kpoint 2">
       <r>  -24.8756    1.0000 </r>
       <r>  -24.5470    1.0000 </r>
       <r>  -12.6838    1.0000 </r>
       <r>  -12.3282    1.0000 </r>
       <r>   -9.4480    1.0000 </r>
       <r>   -9.0999    1.0000 </r>
       <r>   -7.2439    1.0000 </r>
       <r>   -6.8835    1.0000 </r>
       <r>   -1.3119    0.0000 </r>
       <r>   -0.8404    0.0000 </r>
       <r>    0.1495    0.0000 </r>
       <r>    0.3410    0.0000 </r>
      </set>
     </set>
    </set>
   </array>
  </eigenvalues>
  <separator name="orbital magnetization" >
   <v name="MAGDIPOLOUT">      0.00000000      0.00000000      0.00000000</v>
  </separator>
  <dos>
   <i name="efermi">     -6.60787564 </i>
   <total>
    <array>
     <dimension dim="1">gridpoints</dimension>
     <dimension dim="2">spin</dimension>
     <field>energy</field>
     <field>total</field>
     <field>integrated</field>
     <set>
      <set comment="spin 1">
       <r>   -26.1369     0.0000     0.0000 </r>
       <r>   -26.0444     0.0000     0.0000 </r>
       <r>   -25.9519     0.0000     0.0000 </r>
       <r>   -25.8594     0.0000     0.0000 </r>
       <r>   -25.7669     0.0000     0.0000 </r>
       <r>   -25.6744     0.0000     0.0000 </r>
       <r>   -25.5819     0.0000     0.0000 </r>
       <r>   -25.4894     0.0000     0.0000 </r>
       <r>   -25.3969     0.0000     0.0000 </r>
       <r>   -25.3044     0.0000     0.0000 </r>
       <r>   -25.2119     0.0000     0.0000 </r>
       <r>   -25.1194     0.0000     0.0000 </r>
       <r>   -25.0269     0.0002     0.0000 </r>
       <r>   -24.9344     1.0369     0.0959 </r>
       <r>   -24.8419    16.8936     1.6586 </r>
       <r>   -24.7494     3.6870     1.9996 </r>
       <r>   -24.6569     0.0242     2.0019 </r>
       <r>   -24.5644     6.7038     2.6220 </r>
       <r>   -24.4719    14.5328     3.9663 </r>
       <r>   -24.3794     0.3647     4.0000 </r>
       <r>   -24.2869     0.0000     4.0000 </r>
       <r>   -24.1944     0.0000     4.0000 </r>
       <r>   -24.1019     0.0000     4.0000 </r>
       <r>   -24.0094     0.0000     4.0000 </r>
       <r>   -23.9169     0.0000     4.0000 </r>
       <r>   -23.8244     0.0000     4.0000 </r>
       <r>   -23.7319     0.0000     4.0000 </r>
       <r>   -23.6394     0.0000     4.0000 </r>
       <r>   -23.5469     0.0000     4.0000 </r>
       <r>   -23.4544     0.0000     4.0000 </r>
       <r>   -23.3619     0.0000     4.0000 </r>
       <r>   -23.2694     0.0000     4.0000 </r>
       <r>   -23.1769     0.0000     4.0000 </r>
       <r>   -23.0844     0.0000     4.0000 </r>
       <r>   -22.9919     0.0000     4.0000 </r>
       <r>   -22.8994     0.0000     4.0000 </r>
       <r>   -22.8069     0.0000     4.0000 </r>
       <r>   -22.7144     0.0000     4.0000 </r>
       <r>   -22.6219     0.0000     4.0000 </r>
       <r>   -22.5294     0.0000     4.0000 </r>
       <r>   -22.4369     0.0000     4.0000 </r>
       <r>   -22.3444     0.0000     4.0000 </r>
       <r>   -22.2519     0.0000     4.0000 </r>
       <r>   -22.1594     0.0000     4.0000 </r>
       <r>   -22.0669     0.0000     4.0000 </r>
       <r>   -21.9744     0.0000     4.0000 </r>
       <r>   -21.8819     0.0000     4.0000 </r>
       <r>   -21.7894     0.0000     4.0000 </r>
       <r>   -21.6969     0.0000     4.0000 </r>
       <r>   -21.6044     0.0000     4.0000 </r>
       <r>   -21.5119     0.0000     4.0000 </r>
       <r>   -21.4194     0.0000     4.0000 </r>
       <r>   -21.3269     0.0000     4.0000 </r>
       <r>   -21.2344     0.0000     4.0000 </r>
       <r>   -21.1419     0.0000     4.0000 </r>
       <r>   -21.0494     0.0000     4.0000 </r>
       <r>   -20.9569     0.0000     4.0000 </r>
       <r>   -20.8644     0.0000     4.0000 </r>
       <r>   -20.7719     0.0000     4.0000 </r>
       <r>   -20.6794     0.0000     4.0000 </r>
       <r>   -20.5869     0.0000     4.0000 </r>
       <r>   -20.4944     0.0000     4.0000 </r>
       <r>   -20.4019     0.0000     4.0000 </r>
       <r>   -20.3094     0.0000     4.0000 </r>
       <r>   -20.2169     0.0000     4.0000 </r>
       <r>   -20.1244     0.0000     4.0000 </r>
       <r>   -20.0319     0.0000     4.0000 </r>
       <r>   -19.9394     0.0000     4.0000 </r>
       <r>   -19.8469     0.0000     4.0000 </r>
       <r>   -19.7544     0.0000     4.0000 </r>
       <r>   -19.6619     0.0000     4.0000 </r>
       <r>   -19.5694     0.0000     4.0000 </r>
       <r>   -19.4769     0.0000     4.0000 </r>
       <r>   -19.3844     0.0000     4.0000 </r>
       <r>   -19.2919     0.0000     4.0000 </r>
       <r>   -19.1994     0.0000     4.0000 </r>
       <r>   -19.1069     0.0000     4.0000 </r>
       <r>   -19.0144     0.0000     4.0000 </r>
       <r>   -18.9219     0.0000     4.0000 </r>
       <r>   -18.8294     0.0000     4.0000 </r>
       <r>   -18.7369     0.0000     4.0000 </r>
       <r>   -18.6444     0.0000     4.0000 </r>
       <r>   -18.5519     0.0000     4.0000 </r>
       <r>   -18.4594     0.0000     4.0000 </r>
       <r>   -18.3669     0.0000     4.0000 </r>
       <r>   -18.2744     0.0000     4.0000 </r>
       <r>   -18.1819     0.0000     4.0000 </r>
       <r>   -18.0894     0.0000     4.0000 </r>
       <r>   -17.9969     0.0000     4.0000 </r>
       <r>   -17.9044     0.0000     4.0000 </r>
       <r>   -17.8119     0.0000     4.0000 </r>
       <r>   -17.7194     0.0000     4.0000 </r>
       <r>   -17.6269     0.0000     4.0000 </r>
       <r>   -17.5344     0.0000     4.0000 </r>
       <r>   -17.4419     0.0000     4.0000 </r>
       <r>   -17.3494     0.0000     4.0000 </r>
       <r>   -17.2569     0.0000     4.0000 </r>
       <r>   -17.1644     0.0000     4.0000 </r>
       <r>   -17.0719     0.0000     4.0000 </r>
       <r>   -16.9794     0.0000     4.0000 </r>
       <r>   -16.8869     0.0000     4.0000 </r>
       <r>   -16.7944     0.0000     4.0000 </r>
       <r>   -16.7019     0.0000     4.0000 </r>
       <r>   -16.6094     0.0000     4.0000 </r>
       <r>   -16.5169     0.0000     4.0000 </r>
       <r>   -16.4244     0.0000     4.0000 </r>
       <r>   -16.3319     0.0000     4.0000 </r>
       <r>   -16.2394     0.0000     4.0000 </r>
       <r>   -16.1469     0.0000     4.0000 </r>
       <r>   -16.0544     0.0000     4.0000 </r>
       <r>   -15.9619     0.0000     4.0000 </r>
       <r>   -15.8694     0.0000     4.0000 </r>
       <r>   -15.7769     0.0000     4.0000 </r>
       <r>   -15.6844     0.0000     4.0000 </r>
       <r>   -15.5919     0.0000     4.0000 </r>
       <r>   -15.4994     0.0000     4.0000 </r>
       <r>   -15.4069     0.0000     4.0000 </r>
       <r>   -15.3144     0.0000     4.0000 </r>
       <r>   -15.2219     0.0000     4.0000 </r>
       <r>   -15.1294     0.0000     4.0000 </r>
       <r>   -15.0369     0.0000     4.0000 </r>
       <r>   -14.9444     0.0000     4.0000 </r>
       <r>   -14.8519     0.0000     4.0000 </r>
       <r>   -14.7594     0.0000     4.0000 </r>
       <r>   -14.6669     0.0000     4.0000 </r>
       <r>   -14.5744     0.0000     4.0000 </r>
       <r>   -14.4819     0.0000     4.0000 </r>
       <r>   -14.3894     0.0000     4.0000 </r>
       <r>   -14.2969     0.0000     4.0000 </r>
       <r>   -14.2044     0.0000     4.0000 </r>
       <r>   -14.1119     0.0000     4.0000 </r>
       <r>   -14.0194     0.0000     4.0000 </r>
       <r>   -13.9269     0.0000     4.0000 </r>
       <r>   -13.8344     0.0000     4.0000 </r>
       <r>   -13.7419     0.0000     4.0000 </r>
       <r>   -13.6494     0.0000     4.0000 </r>
       <r>   -13.5569     0.0000     4.0000 </r>
       <r>   -13.4644     0.0000     4.0000 </r>
       <r>   -13.3719     0.0000     4.0000 </r>
       <r>   -13.2794     0.0000     4.0000 </r>
       <r>   -13.1869     0.0000     4.0000 </r>
       <r>   -13.0944     0.0000     4.0000 </r>
       <r>   -13.0019     0.0000     4.0000 </r>
       <r>   -12.9094     0.0000     4.0000 </r>
       <r>   -12.8169     0.0018     4.0002 </r>
       <r>   -12.7244     2.6990     4.2498 </r>
       <r>   -12.6319    17.3773     5.8572 </r>
       <r>   -12.5394     1.5431     6.0000 </r>
       <r>   -12.4469     0.0089     6.0008 </r>
       <r>   -12.3544     4.9356     6.4573 </r>
       <r>   -12.2619    16.0174     7.9389 </r>
       <r>   -12.1694     0.6601     8.0000 </r>
       <r>   -12.0769     0.0001     8.0000 </r>
       <r>   -11.9844     0.0000     8.0000 </r>
       <r>   -11.8919     0.0000     8.0000 </r>
       <r>   -11.7994     0.0000     8.0000 </r>
       <r>   -11.7069     0.0000     8.0000 </r>
       <r>   -11.6144     0.0000     8.0000 </r>
       <r>   -11.5219     0.0000     8.0000 </r>
       <r>   -11.4294     0.0000     8.0000 </r>
       <r>   -11.3369     0.0000     8.0000 </r>
       <r>   -11.2444     0.0000     8.0000 </r>
       <r>   -11.1519     0.0000     8.0000 </r>
       <r>   -11.0594     0.0000     8.0000 </r>
       <r>   -10.9669     0.0000     8.0000 </r>
       <r>   -10.8744     0.0000     8.0000 </r>
       <r>   -10.7819     0.0000     8.0000 </r>
       <r>   -10.6894     0.0000     8.0000 </r>
       <r>   -10.5969     0.0000     8.0000 </r>
       <r>   -10.5044     0.0000     8.0000 </r>
       <r>   -10.4119     0.0000     8.0000 </r>
       <r>   -10.3194     0.0000     8.0000 </r>
       <r>   -10.2269     0.0000     8.0000 </r>
       <r>   -10.1344     0.0000     8.0000 </r>
       <r>   -10.0419     0.0000     8.0000 </r>
       <r>    -9.9494     0.0000     8.0000 </r>
       <r>    -9.8569     0.0000     8.0000 </r>
       <r>    -9.7644     0.0000     8.0000 </r>
       <r>    -9.6719     0.0000     8.0000 </r>
       <r>    -9.5794     0.0022     8.0002 </r>
       <r>    -9.4869     2.9192     8.2702 </r>
       <r>    -9.3944    17.2939     9.8699 </r>
       <r>    -9.3019     1.4059    10.0000 </r>
       <r>    -9.2094     0.0215    10.0020 </r>
       <r>    -9.1169     6.7956    10.6305 </r>
       <r>    -9.0244    14.4510    11.9673 </r>
       <r>    -8.9319     0.3538    12.0000 </r>
       <r>    -8.8394     0.0000    12.0000 </r>
       <r>    -8.7469     0.0000    12.0000 </r>
       <r>    -8.6544     0.0000    12.0000 </r>
       <r>    -8.5619     0.0000    12.0000 </r>
       <r>    -8.4694     0.0000    12.0000 </r>
       <r>    -8.3769     0.0000    12.0000 </r>
       <r>    -8.2844     0.0000    12.0000 </r>
       <r>    -8.1919     0.0000    12.0000 </r>
       <r>    -8.0994     0.0000    12.0000 </r>
       <r>    -8.0069     0.0000    12.0000 </r>
       <r>    -7.9144     0.0000    12.0000 </r>
       <r>    -7.8219     0.0000    12.0000 </r>
       <r>    -7.7294     0.0000    12.0000 </r>
       <r>    -7.6369     0.0000    12.0000 </r>
       <r>    -7.5444     0.0000    12.0000 </r>
       <r>    -7.4519     0.0000    12.0000 </r>
       <r>    -7.3594     0.0118    12.0011 </r>
       <r>    -7.2669     5.5609    12.5155 </r>
       <r>    -7.1744    15.5159    13.9507 </r>
       <r>    -7.0819     0.5330    14.0000 </r>
       <r>    -6.9894     0.0295    14.0027 </r>
       <r>    -6.8969     7.5753    14.7034 </r>
       <r>    -6.8044    13.7425    15.9746 </r>
       <r>    -6.7119     0.2743    16.0000 </r>
       <r>    -6.6194     0.0000    16.0000 </r>
       <r>    -6.5269     0.0000    16.0000 </r>
       <r>    -6.4344     0.0000    16.0000 </r>
       <r>    -6.3419     0.0000    16.0000 </r>
       <r>    -6.2494     0.0000    16.0000 </r>
       <r>    -6.1569     0.0000    16.0000 </r>
       <r>    -6.0644     0.0000    16.0000 </r>
       <r>    -5.9719     0.0000    16.0000 </r>
       <r>    -5.8794     0.0000    16.0000 </r>
       <r>    -5.7869     0.0000    16.0000 </r>
       <r>    -5.6944     0.0000    16.0000 </r>
       <r>    -5.6019     0.0000    16.0000 </r>
       <r>    -5.5094     0.0000    16.0000 </r>
       <r>    -5.4169     0.0000    16.0000 </r>
       <r>    -5.3244     0.0000    16.0000 </r>
       <r>    -5.2319     0.0000    16.0000 </r>
       <r>    -5.1394     0.0000    16.0000 </r>
       <r>    -5.0469     0.0000    16.0000 </r>
       <r>    -4.9544     0.0000    16.0000 </r>
       <r>    -4.8619     0.0000    16.0000 </r>
       <r>    -4.7694     0.0000    16.0000 </r>
       <r>    -4.6769     0.0000    16.0000 </r>
       <r>    -4.5844     0.0000    16.0000 </r>
       <r>    -4.4919     0.0000    16.0000 </r>
       <r>    -4.3994     0.0000    16.0000 </r>
       <r>    -4.3069     0.0000    16.0000 </r>
       <r>    -4.2144     0.0000    16.0000 </r>
       <r>    -4.1219     0.0000    16.0000 </r>
       <r>    -4.0294     0.0000    16.0000 </r>
       <r>    -3.9369     0.0000    16.0000 </r>
       <r>    -3.8444     0.0000    16.0000 </r>
       <r>    -3.7519     0.0000    16.0000 </r>
       <r>    -3.6594     0.0000    16.0000 </r>
       <r>    -3.5669     0.0000    16.0000 </r>
       <r>    -3.4744     0.0000    16.0000 </r>
       <r>    -3.3819     0.0000    16.0000 </r>
       <r>    -3.2894     0.0000    16.0000 </r>
       <r>    -3.1969     0.0000    16.0000 </r>
       <r>    -3.1044     0.0000    16.0000 </r>
       <r>    -3.0119     0.0000    16.0000 </r>
       <r>    -2.9194     0.0000    16.0000 </r>
       <r>    -2.8269     0.0000    16.0000 </r>
       <r>    -2.7344     0.0000    16.0000 </r>
       <r>    -2.6419     0.0000    16.0000 </r>
       <r>    -2.5494     0.0000    16.0000 </r>
       <r>    -2.4569     0.0000    16.0000 </r>
       <r>    -2.3644     0.0000    16.0000 </r>
       <r>    -2.2719     0.0000    16.0000 </r>
       <r>    -2.1794     0.0000    16.0000 </r>
       <r>    -2.0869     0.0000    16.0000 </r>
       <r>    -1.9944     0.0000    16.0000 </r>
       <r>    -1.9019     0.0000    16.0000 </r>
       <r>    -1.8094     0.0000    16.0000 </r>
       <r>    -1.7169     0.0000    16.0000 </r>
       <r>    -1.6244     0.0000    16.0000 </r>
       <r>    -1.5319     0.0000    16.0000 </r>
       <r>    -1.4394     0.0034    16.0003 </r>
       <r>    -1.3469     3.4768    16.3219 </r>
       <r>    -1.2544    17.0171    17.8960 </r>
       <r>    -1.1619     1.1241    18.0000 </r>
       <r>    -1.0694     0.0002    18.0000 </r>
       <r>    -0.9769     0.0012    18.0001 </r>
       <r>    -0.8844     2.3050    18.2133 </r>
       <r>    -0.7919    17.4763    19.8299 </r>
       <r>    -0.6994     1.8384    19.9999 </r>
       <r>    -0.6069     0.0007    20.0000 </r>
       <r>    -0.5144     0.0000    20.0000 </r>
       <r>    -0.4219     0.0000    20.0000 </r>
       <r>    -0.3294     0.0000    20.0000 </r>
       <r>    -0.2369     0.0000    20.0000 </r>
       <r>    -0.1444     0.0000    20.0000 </r>
       <r>    -0.0519     0.0000    20.0000 </r>
       <r>     0.0406     0.0204    20.0019 </r>
       <r>     0.1331     6.7085    20.6224 </r>
       <r>     0.2256    14.5356    21.9670 </r>
       <r>     0.3181     4.9933    22.4288 </r>
       <r>     0.4106    16.2012    23.9275 </r>
       <r>     0.5031     0.7841    24.0000 </r>
       <r>     0.5956     0.0001    24.0000 </r>
       <r>     0.6881     0.0000    24.0000 </r>
       <r>     0.7806     0.0000    24.0000 </r>
       <r>     0.8731     0.0000    24.0000 </r>
       <r>     0.9656     0.0000    24.0000 </r>
       <r>     1.0581     0.0000    24.0000 </r>
       <r>     1.1506     0.0000    24.0000 </r>
       <r>     1.2431     0.0000    24.0000 </r>
       <r>     1.3356     0.0000    24.0000 </r>
       <r>     1.4281     0.0000    24.0000 </r>
       <r>     1.5206     0.0000    24.0000 </r>
       <r>     1.6131     0.0000    24.0000 </r>
      </set>
     </set>
    </array>
   </total>
  </dos>
 </calculation>
 <structure name="finalpos" >
  <crystal>
   <varray name="basis" >
    <v>      30.00000000       0.00000000       0.00000000 </v>
    <v>       0.00000000      10.00000000       0.00000000 </v>
    <v>       0.00000000       0.00000000      10.00000000 </v>
   </varray>
   <i name="volume">   3000.00000000 </i>
   <varray name="rec_basis" >
    <v>       0.03333333       0.00000000       0.00000000 </v>
    <v>       0.00000000       0.10000000       0.00000000 </v>
    <v>       0.00000000       0.00000000       0.10000000 </v>
   </varray>
  </crystal>
  <varray name="positions" >
   <v>       0.14186896       0.15710957       0.17600000 </v>
   <v>       0.95513104       0.15710957       0.17600000 </v>
   <v>       0.15254413       0.25541218       0.17439231 </v>
   <v>       0.10847255       0.16672783       0.17649328 </v>
   <v>       0.94612303       0.09941802       0.25610440 </v>
   <v>       0.94624850       0.09907990       0.09607226 </v>
  </varray>
 </structure>
</modeling>
