7.864560127258300781e+00 5.320030212402343750e+00 9.480830192565917969e+00 4.776549816131591797e+00 6.285499930381774902e-01 6.916999816894531250e-02 1.164649963378906250e+00 8.000060081481933594e+00 9.052780151367187500e+00 1.247747039794921875e+01 1.536649942398071289e+00 9.477640151977539062e+00 3.863640069961547852e+00 1.414167022705078125e+01 1.117846965789794922e+01 1.440719962120056152e+00 5.387849807739257812e+00 1.189317035675048828e+01 6.114160060882568359e+00 8.770879745483398438e+00 5.215040206909179688e+00 5.570469856262207031e+00 1.342837047576904297e+01 1.490867042541503906e+01 1.211516952514648438e+01 1.489177036285400391e+01 3.406949996948242188e+00 1.300016975402832031e+01 4.396480083465576172e+00 5.001599788665771484e-01 1.174516963958740234e+01 1.472146987915039062e+01 6.285200119018554688e+00 2.921550035476684570e+00 8.366140365600585938e+00 3.519759893417358398e+00 1.120627021789550781e+01 3.886300027370452881e-01 1.427427005767822266e+01 1.022966957092285156e+01 1.048616981506347656e+01 1.451776981353759766e+01 2.823940038681030273e+00 1.247756958007812500e+01 2.538209915161132812e+00 3.927210092544555664e+00 7.468369960784912109e+00 9.190230369567871094e+00 5.427730083465576172e+00 5.211820125579833984e+00 9.643300175666809082e-01 5.634650230407714844e+00 7.850500106811523438e+00 6.183699965476989746e-01 1.119927024841308594e+01 2.951849937438964844e+00 1.476546955108642578e+01 7.859439849853515625e+00 3.510930061340332031e+00 7.378719806671142578e+00 1.008767032623291016e+01 8.832859992980957031e+00 9.890089988708496094e+00 5.379049777984619141e+00 8.328000068664550781e+00 1.130206966400146484e+01 1.625370025634765625e+00 1.398526954650878906e+01 1.243037033081054688e+01 2.801130056381225586e+00 1.946310043334960938e+00 1.396757030487060547e+01 7.434300184249877930e-01 1.143927001953125000e+01 1.178736972808837891e+01 1.995599985122680664e+00 1.504096984863281250e+01 2.360340118408203125e+00 1.327007007598876953e+01 1.398276996612548828e+01 1.436507034301757812e+01 1.136917018890380859e+01 6.165750026702880859e+00 2.422999963164329529e-02 1.444536972045898438e+01 8.459989547729492188e+00 1.245016956329345703e+01 1.518206977844238281e+01 1.190867042541503906e+01 5.846400260925292969e-01 1.060247039794921875e+01 3.401390075683593750e+00 1.221757030487060547e+01 7.094570159912109375e+00 1.080260038375854492e+00 1.461036968231201172e+01 1.382357025146484375e+01 9.247449874877929688e+00 9.429900169372558594e+00 3.337690114974975586e+00 1.105056953430175781e+01 1.257147026062011719e+01 2.814270019531250000e+00 4.905869960784912109e+00 7.347380161285400391e+00 7.800320148468017578e+00 9.302069664001464844e+00 8.262390136718750000e+00 1.509307003021240234e+01 4.005999863147735596e-01 7.646619796752929688e+00 6.516220092773437500e+00 7.155189990997314453e+00 8.176679611206054688e+00 1.903399974107742310e-01 5.832779884338378906e+00 7.606699943542480469e+00 1.175940036773681641e+00 2.090759992599487305e+00 8.518699645996093750e+00 3.781810045242309570e+00 2.372430086135864258e+00 6.826489925384521484e+00 1.447867012023925781e+01 1.447167015075683594e+01 1.471770048141479492e+00 1.525516986846923828e+01 1.304636955261230469e+01 4.831570148468017578e+00 8.235879898071289062e+00 8.772350311279296875e+00 1.201359987258911133e+00 9.801989555358886719e+00 8.739899992942810059e-01 3.168829917907714844e+00 2.506570100784301758e+00 1.130607032775878906e+01 1.522616958618164062e+01 8.319299817085266113e-01 3.565629959106445312e+00 5.371719837188720703e+00 8.904120445251464844e+00 1.232637023925781250e+01 1.324540019035339355e+00 7.800159931182861328e+00 6.539020061492919922e+00 5.305510044097900391e+00 3.788140058517456055e+00 1.456027030944824219e+01 5.717189788818359375e+00 1.455117034912109375e+01 1.201817035675048828e+01 7.546790122985839844e+00 9.321370124816894531e+00 9.410840034484863281e+00 3.762510061264038086e+00 4.641520023345947266e+00 6.526700258255004883e-01 2.743649959564208984e+00 3.778640031814575195e+00 1.162477016448974609e+01 9.909859657287597656e+00 1.219386959075927734e+01 7.888939857482910156e+00 7.842090129852294922e+00 9.905460357666015625e+00 6.691060066223144531e+00 4.019929885864257812e+00 3.499380111694335938e+00 5.279240131378173828e+00 3.375799894332885742e+00 2.282730102539062500e+00 1.188027000427246094e+01 5.375040054321289062e+00 1.430387020111083984e+01 8.398399949073791504e-01 4.562719821929931641e+00 7.016540050506591797e+00 1.178997039794921875e+01 3.260790109634399414e+00 1.267537021636962891e+01 1.709179997444152832e+00 6.610410213470458984e+00 6.393489837646484375e+00 1.367687034606933594e+01 1.199876976013183594e+01 5.207369804382324219e+00 5.660399913787841797e+00 1.357837009429931641e+01 7.630640029907226562e+00 1.187989950180053711e+00 8.718440055847167969e+00 1.478886985778808594e+01 4.196360111236572266e+00 1.358697032928466797e+01 1.187677001953125000e+01 8.939240455627441406e+00 7.377799749374389648e-01 8.335749626159667969e+00 4.541530132293701172e+00 1.205737018585205078e+01 1.033316993713378906e+01 5.577350139617919922e+00 8.674750328063964844e+00 6.322169780731201172e+00 1.033127021789550781e+01 1.024396991729736328e+01 6.888529777526855469e+00 1.113177013397216797e+01 1.497756958007812500e+01 2.811239957809448242e+00 7.974289894104003906e+00 1.568599939346313477e-01 6.963349819183349609e+00 3.042020082473754883e+00 4.917399883270263672e+00 1.178127002716064453e+01 1.045876979827880859e+01 3.423439979553222656e+00 5.822150230407714844e+00 1.089517021179199219e+01 6.909180164337158203e+00 1.076686954498291016e+01 5.194100141525268555e-01 1.150936985015869141e+01 1.357966995239257812e+01 1.390666961669921875e+01 9.062569618225097656e+00 1.308796977996826172e+01 1.003497028350830078e+01 5.850210189819335938e+00 1.446057033538818359e+01 2.230590105056762695e+00 1.183666992187500000e+01 1.167856979370117188e+01 1.067296981811523438e+01 1.106826972961425781e+01 8.881509780883789062e+00 1.435937023162841797e+01 1.470936965942382812e+01 8.543860435485839844e+00 6.307879924774169922e+00 2.780700027942657471e-01 7.514999806880950928e-02 1.637519955635070801e+00 1.419899940490722656e+00 3.247199952602386475e-01 8.542380332946777344e+00 3.611219882965087891e+00 5.212520122528076172e+00 7.389100193977355957e-01 8.446430206298828125e+00 3.449499905109405518e-01 7.023389816284179688e+00 1.532627010345458984e+01 6.132569789886474609e+00 1.412436962127685547e+01 4.491459846496582031e+00 1.354426956176757812e+01 3.081789970397949219e+00 2.792429924011230469e+00 1.201537036895751953e+01 6.767950057983398438e+00 1.297076988220214844e+01 8.057299613952636719e+00 1.246347045898437500e+01 8.432860374450683594e+00 1.212557029724121094e+01 5.851280212402343750e+00 5.219880104064941406e+00 9.803400039672851562e+00 8.329839706420898438e+00 1.247607040405273438e+01 2.081850051879882812e+00 2.248239994049072266e+00 1.131097030639648438e+01 8.990300297737121582e-01 4.848710060119628906e+00 2.791280031204223633e+00 4.437230110168457031e+00 1.053477001190185547e+01 2.977149963378906250e+00 1.341487026214599609e+01 1.136857032775878906e+01 1.276667022705078125e+01 1.419357013702392578e+01 9.674559593200683594e+00 1.496706962585449219e+01 4.438270092010498047e+00 2.966860055923461914e+00 4.299149990081787109e+00 1.064517021179199219e+01 3.699090003967285156e+00 6.941160202026367188e+00 1.099407005310058594e+01 3.575429916381835938e+00 4.125070095062255859e+00 5.282229900360107422e+00 1.336396980285644531e+01 8.614250183105468750e+00 9.180910110473632812e+00 1.478987026214599609e+01 7.096049785614013672e+00 1.228787040710449219e+01 4.997680187225341797e+00 1.066606998443603516e+01 8.400119781494140625e+00 4.434229850769042969e+00 2.787450075149536133e+00 6.627480030059814453e+00 2.296890020370483398e+00 1.224057006835937500e+01 1.473396968841552734e+01 5.982399940490722656e+00 5.102829933166503906e+00 1.609030008316040039e+00 1.487697029113769531e+01 1.494686985015869141e+01 4.902949810028076172e+00 9.154159545898437500e+00 1.379967021942138672e+01 2.269979953765869141e+00 8.190890312194824219e+00 1.249676990509033203e+01 1.563259959220886230e+00 3.847970008850097656e+00 2.217700034379959106e-01 1.018336963653564453e+01 1.297437000274658203e+01 1.045997047424316406e+01 1.105426979064941406e+01 1.171347045898437500e+01 7.176879882812500000e+00 8.735560417175292969e+00 2.018779993057250977e+00 8.705300092697143555e-01 7.722549915313720703e+00 6.885499954223632812e+00 1.311546993255615234e+01 3.212229967117309570e+00 1.019567012786865234e+01 7.406909942626953125e+00 1.425736999511718750e+01 1.147836971282958984e+01 3.099539995193481445e+00 7.952139854431152344e+00 3.462300002574920654e-01 1.108506965637207031e+01 1.036299943923950195e+00 1.070666980743408203e+01 9.174679756164550781e+00 1.404537010192871094e+01 6.882009983062744141e+00 2.022140026092529297e+00 1.460266971588134766e+01 4.595560073852539062e+00 9.690110206604003906e+00 8.667860031127929688e+00 1.105807018280029297e+01 5.731440067291259766e+00 4.639760017395019531e+00 2.265199899673461914e+00 1.049417018890380859e+01 8.680549621582031250e+00 1.235426998138427734e+01 1.290587043762207031e+01 3.934770107269287109e+00 4.867390155792236328e+00 1.048007011413574219e+01 1.468266963958740234e+01 1.468447017669677734e+01 1.141096973419189453e+01 3.594010114669799805e+00 7.510089874267578125e+00 6.280739784240722656e+00 1.800899982452392578e+00 9.662899971008300781e-01 5.205850124359130859e+00 7.974909782409667969e+00 6.019700169563293457e-01 5.024400234222412109e+00 1.154897022247314453e+01 1.280677032470703125e+01 1.768380045890808105e+00 7.596310138702392578e+00 4.714829921722412109e+00 8.727299690246582031e+00 4.647109985351562500e+00 8.364499807357788086e-01 1.064620018005371094e+00 1.037490010261535645e+00 7.846809864044189453e+00 1.003586959838867188e+01 1.290627002716064453e+01 1.451990008354187012e+00 8.669420242309570312e+00 8.834620475769042969e+00 5.534989833831787109e+00 9.150190353393554688e+00 4.090030193328857422e+00 1.140280008316040039e+00 1.486727046966552734e+01 1.354730010032653809e+00 8.893030166625976562e+00 8.833559989929199219e+00 1.225876998901367188e+01 6.552299857139587402e-01 9.802940368652343750e+00 4.805429935455322266e+00 1.391117000579833984e+01 1.140606975555419922e+01 6.441599726676940918e-01 5.362959861755371094e+00 1.124876976013183594e+01 5.791739940643310547e+00 9.488400459289550781e+00 4.638999938964843750e+00 5.036960124969482422e+00 1.406297016143798828e+01 1.532536983489990234e+01 3.749749898910522461e+00 1.361067008972167969e+01 1.039496994018554688e+01 2.266819953918457031e+00 5.242509841918945312e+00 1.133996963500976562e+01 5.223100185394287109e+00 8.291580200195312500e+00 5.402060031890869141e+00 5.715690135955810547e+00 1.373157024383544922e+01 1.402947044372558594e+01 1.127326965332031250e+01 1.396999955177307129e-01 3.296930074691772461e+00 1.069137001037597656e+01 6.449090003967285156e+00 8.429180145263671875e+00 1.165207004547119141e+01 1.438726997375488281e+01 5.358160018920898438e+00 3.254590034484863281e+00 7.440360069274902344e+00 3.247659921646118164e+00 1.285146999359130859e+01 1.123000010848045349e-01 3.770649909973144531e+00 1.373577022552490234e+01 4.508639812469482422e+00 1.523336982727050781e+01 1.210676956176757812e+01 1.400137042999267578e+01 6.868690013885498047e+00 1.952790021896362305e+00 8.338089942932128906e+00 3.585360050201416016e+00 1.047727012634277344e+01 1.521907043457031250e+01 1.472906970977783203e+01 1.083806991577148438e+01 1.126436996459960938e+01 1.459066963195800781e+01 2.620179891586303711e+00 1.201996994018554688e+01 1.678750038146972656e+00 4.536170005798339844e+00 7.634329795837402344e+00 9.876420021057128906e+00 1.213626956939697266e+01 1.522416973114013672e+01 1.423316955566406250e+01 1.082606983184814453e+01 9.869339942932128906e+00 1.503826999664306641e+01 2.335619926452636719e+00 1.334377002716064453e+01 2.602829933166503906e+00 3.014029979705810547e+00 7.540100097656250000e+00 9.505499839782714844e+00 5.240419864654541016e+00 5.239580154418945312e+00 1.532207012176513672e+01 5.820859909057617188e+00 6.841189861297607422e+00 6.472799777984619141e-01 1.123266983032226562e+01 1.992529988288879395e+00 1.456136989593505859e+01 7.668469905853271484e+00 2.604990005493164062e+00 7.869840145111083984e+00 6.348639965057373047e+00 4.913320064544677734e+00 1.124950051307678223e+00 6.245160102844238281e+00 8.271189689636230469e+00 1.194849967956542969e+00 1.039916992187500000e+01 3.091989994049072266e+00 1.530107021331787109e+01 7.284500122070312500e+00 3.598649978637695312e+00 6.580820083618164062e+00 9.228819847106933594e+00 9.004839897155761719e+00 9.416239738464355469e+00 5.630879878997802734e+00 9.178090095520019531e+00 1.069756984710693359e+01 1.690430045127868652e+00 1.422327041625976562e+01 1.339107036590576172e+01 2.397119998931884766e+00 1.993729948997497559e+00 1.308957004547119141e+01 9.988069534301757812e+00 8.315759658813476562e+00 1.076817035675048828e+01 6.201389789581298828e+00 8.002079963684082031e+00 1.160956954956054688e+01 2.574510097503662109e+00 1.403907012939453125e+01 1.203106975555419922e+01 2.529979944229125977e+00 2.813080072402954102e+00 1.442757034301757812e+01 1.519917011260986328e+01 1.133456993103027344e+01 1.206027030944824219e+01 2.844419956207275391e+00 1.533802986145019531e+01 2.729640007019042969e+00 1.390386962890625000e+01 1.415036964416503906e+01 1.361746978759765625e+01 1.232697010040283203e+01 3.769979953765869141e+00 4.650000110268592834e-02 9.469400048255920410e-01 1.241127014160156250e+01 1.205426979064941406e+01 1.318529963493347168e+00 3.829399943351745605e-01 2.321599960327148438e+00 1.065487003326416016e+01 7.889589786529541016e+00 1.277466964721679688e+01 1.172937011718750000e+01 6.874410152435302734e+00 6.482899785041809082e-01 1.405126953125000000e+01 8.723409652709960938e+00 1.163877010345458984e+01 7.021200060844421387e-01 1.200337028503417969e+01 8.338999748229980469e-02 1.106966972351074219e+01 3.478719949722290039e+00 1.312407016754150391e+01 6.125090122222900391e+00 8.528100252151489258e-01 1.492687034606933594e+01 4.168999940156936646e-02 8.466830253601074219e+00 1.230667018890380859e+01 1.473987007141113281e+01 1.277686977386474609e+01 4.778900146484375000e-01 1.128896999359130859e+01 3.721299886703491211e+00 1.158337020874023438e+01 6.920559883117675781e+00 1.685610055923461914e+00 1.387287044525146484e+01 3.210500001907348633e+00 7.692510128021240234e+00 5.419360160827636719e+00 2.431790113449096680e+00 1.078767013549804688e+01 1.261727046966552734e+01 1.853489995002746582e+00 5.000699996948242188e+00 7.459390163421630859e+00 7.199570178985595703e+00 8.527600288391113281e+00 8.098609924316406250e+00 1.323857021331787109e+01 9.974169731140136719e+00 9.785220146179199219e+00 3.943670034408569336e+00 1.045516967773437500e+01 1.294596958160400391e+01 4.568799972534179688e+00 1.047770023345947266e+00 7.672969818115234375e+00 7.951240062713623047e+00 9.750089645385742188e+00 7.335929870605468750e+00 1.434996986389160156e+01 9.514600038528442383e-01 7.432769775390625000e+00 6.771580219268798828e+00 6.606589794158935547e+00 9.069669723510742188e+00 4.911899864673614502e-01 6.757989883422851562e+00 7.939340114593505859e+00 5.129200220108032227e-01 2.800339937210083008e+00 8.390040397644042969e+00 3.558200001716613770e-01 1.155900001525878906e+00 7.957489967346191406e+00 5.586880207061767578e+00 7.109950065612792969e+00 8.279359817504882812e+00 1.531472969055175781e+01 6.042860031127929688e+00 6.632120132446289062e+00 1.279160022735595703e+00 2.096499919891357422e+00 9.537650108337402344e+00 2.956039905548095703e+00 1.844009995460510254e+00 6.896220207214355469e+00 1.357987022399902344e+01 1.440686988830566406e+01 1.823750019073486328e+00 1.483226966857910156e+01 1.256717014312744141e+01 4.127920150756835938e+00 8.516929626464843750e+00 7.975019931793212891e+00 7.031800150871276855e-01 3.506449937820434570e+00 3.281589984893798828e+00 7.305399894714355469e+00 1.474036979675292969e+01 3.500000108033418655e-03 1.404860019683837891e+00 1.514587020874023438e+01 1.389087009429931641e+01 4.416900157928466797e+00 8.092029571533203125e+00 9.446209907531738281e+00 5.028100013732910156e-01 9.081480026245117188e+00 8.671200275421142578e-01 3.939239978790283203e+00 2.595190048217773438e+00 1.035426998138427734e+01 1.491067028045654297e+01 1.550629973411560059e+00 3.881079912185668945e+00 5.937429904937744141e+00 9.167490005493164062e+00 1.162876987457275391e+01 6.991000175476074219e-01 9.204850196838378906e+00 4.186989784240722656e+00 1.220777034759521484e+01 2.893569946289062500e+00 1.186487007141113281e+01 1.440406990051269531e+01 1.616300046443939209e-01 4.250899791717529297e+00 5.477240085601806641e+00 9.703989982604980469e+00 1.280737018585205078e+01 1.693060040473937988e+00 7.645450115203857422e+00 6.455329895019531250e+00 6.288660049438476562e+00 3.483050107955932617e+00 1.366726970672607422e+01 5.501589775085449219e+00 1.411147022247314453e+01 1.263716983795166016e+01 8.168250083923339844e+00 8.774900436401367188e+00 9.261960029602050781e+00 2.916039943695068359e+00 7.350470066070556641e+00 7.457540035247802734e+00 5.033390045166015625e+00 3.050529956817626953e+00 1.523087024688720703e+01 5.500579833984375000e+00 1.492076969146728516e+01 1.252276992797851562e+01 6.777450084686279297e+00 5.187950134277343750e+00 1.412407016754150391e+01 4.905210018157958984e+00 4.720680236816406250e+00 1.474060058593750000e+00 3.378930091857910156e+00 3.542109966278076172e+00 1.127536964416503906e+01 1.079607009887695312e+01 1.141627025604248047e+01 8.129819869995117188e+00 8.370679855346679688e+00 9.771570205688476562e+00 7.626689910888671875e+00 3.922339916229248047e+00 9.333640098571777344e+00 1.180909991264343262e+00 2.368319988250732422e+00 4.649940013885498047e+00 1.116547012329101562e+01 9.722260475158691406e+00 1.288776969909667969e+01 8.473609924316406250e+00 8.279299736022949219e+00 9.257120132446289062e+00 6.477789878845214844e+00 4.722549915313720703e+00 4.161719799041748047e+00 5.497529983520507812e+00 2.660989999771118164e+00 1.516229987144470215e+00 1.248097038269042969e+01 5.227129936218261719e+00 1.432896995544433594e+01 1.719339966773986816e+00 4.259469985961914062e+00 7.552299976348876953e+00 1.188586997985839844e+01 2.398610115051269531e+00 2.601069927215576172e+00 5.218920230865478516e+00 2.898260116577148438e+00 2.907530069351196289e+00 1.196767044067382812e+01 4.606780052185058594e+00 1.387376976013183594e+01 1.023390054702758789e+00 5.481150150299072266e+00 6.258810043334960938e+00 1.120277023315429688e+01 3.148309946060180664e+00 3.252379894256591797e+00 5.585909843444824219e+00 6.950510025024414062e+00 7.162789821624755859e+00 1.311676979064941406e+01 1.227727031707763672e+01 5.209410190582275391e+00 4.728980064392089844e+00 1.321926975250244141e+01 6.714059829711914062e+00 8.775200247764587402e-01 8.494640350341796875e+00 1.194437026977539062e+01 1.064659953117370605e+00 6.412119865417480469e+00 6.849810123443603516e+00 1.451686954498291016e+01 1.163716983795166016e+01 6.177490234375000000e+00 5.772570133209228516e+00 1.368747043609619141e+01 8.229720115661621094e+00 5.978000164031982422e-01 8.222590446472167969e+00 1.433516979217529297e+01 3.616480112075805664e+00 1.286647033691406250e+01 1.277217006683349609e+01 9.373669624328613281e+00 5.838000178337097168e-01 7.906020164489746094e+00 1.816779971122741699e+00 2.729899883270263672e-01 1.062366962432861328e+01 4.898320198059082031e+00 7.974959850311279297e+00 1.511917018890380859e+01 5.075880050659179688e+00 1.333887004852294922e+01 1.159146976470947266e+01 9.240810394287109375e+00 1.657909989356994629e+00 8.187379837036132812e+00 4.765620231628417969e+00 1.109447002410888672e+01 1.177087020874023438e+01 1.369686985015869141e+01 2.202369928359985352e+00 6.857200145721435547e+00 1.012407016754150391e+01 9.444569587707519531e+00 6.395349979400634766e+00 1.191296958923339844e+01 1.533946990966796875e+01 8.937159538269042969e+00 1.013346958160400391e+01 4.391930103302001953e+00 7.387380123138427734e+00 2.130189895629882812e+00 4.853400230407714844e+00 6.797369956970214844e+00 1.096597003936767578e+01 1.077387046813964844e+01 6.243150234222412109e+00 1.055167007446289062e+01 1.453316974639892578e+01 3.195790052413940430e+00 8.286959648132324219e+00 1.468336963653564453e+01 6.059420108795166016e+00 2.996900081634521484e+00 4.617209911346435547e+00 1.219526958465576172e+01 1.027387046813964844e+01 4.300519943237304688e+00 4.872809886932373047e+00 1.075226974487304688e+01 7.107850074768066406e+00 1.073517036437988281e+01 3.811300098896026611e-01 1.252616977691650391e+01 1.397696971893310547e+01 1.471747016906738281e+01 8.588359832763671875e+00 1.086997032165527344e+01 1.010076999664306641e+01 3.478169918060302734e+00 6.043049812316894531e+00 1.003316974639892578e+01 6.502719879150390625e+00 1.220666980743408203e+01 2.528000116348266602e+00 6.711540222167968750e+00 1.409477043151855469e+01 1.397597026824951172e+01 9.901670455932617188e+00 1.377206993103027344e+01 1.048647022247314453e+01 6.440000057220458984e+00 1.072499975562095642e-01 2.381680011749267578e+00 1.188646984100341797e+01 1.097867012023925781e+01 1.004166984558105469e+01 1.081717014312744141e+01 8.755249977111816406e+00 1.375317001342773438e+01 1.636400073766708374e-01 1.262677001953125000e+01 9.341699600219726562e+00 6.424109935760498047e+00 1.406497001647949219e+01 2.426830053329467773e+00 1.095446968078613281e+01 1.115087032318115234e+01 1.146877002716064453e+01 1.107577037811279297e+01 8.159090042114257812e+00 1.507536983489990234e+01 1.476086997985839844e+01 8.420940399169921875e+00 6.306300163269042969e+00 1.464826965332031250e+01 1.499777030944824219e+01 2.309629917144775391e+00 1.917459964752197266e+00 3.030000068247318268e-02 9.531009674072265625e+00 3.495440006256103516e+00 5.163640022277832031e+00 1.513076972961425781e+01 8.535169601440429688e+00 9.502630233764648438e+00 6.131539821624755859e+00 3.874300122261047363e-01 6.529600024223327637e-01 2.058249950408935547e+00 7.140600085258483887e-01 1.194707012176513672e+01 5.428810119628906250e+00 2.908900082111358643e-01 1.394606971740722656e+01 1.408436965942382812e+01 1.512716960906982422e+01 1.301360011100769043e+00 7.206150054931640625e+00 1.708800047636032104e-01 6.348249912261962891e+00 1.324516963958740234e+01 4.128139972686767578e+00 1.269307041168212891e+01 3.227849960327148438e+00 3.235939979553222656e+00 1.286876964569091797e+01 7.114799976348876953e+00 1.291816997528076172e+01 2.228599935770034790e-01 7.887790203094482422e+00 1.489896965026855469e+01 1.065326976776123047e+01 3.738869905471801758e+00 5.940229892730712891e+00 1.341096973419189453e+01 3.615119934082031250e+00 1.976439952850341797e+00 1.182516956329345703e+01 6.644539833068847656e+00 1.390567016601562500e+01 8.528730392456054688e+00 1.258456993103027344e+01 9.254879951477050781e+00 1.135276985168457031e+01 6.136839866638183594e+00 4.615379810333251953e+00 1.067467021942138672e+01 1.495790004730224609e+00 1.145917034149169922e+01 3.078449964523315430e+00 2.276079893112182617e+00 1.103627014160156250e+01 7.129290103912353516e+00 1.237817001342773438e+01 8.553339958190917969e+00 1.178017044067382812e+01 6.101319789886474609e+00 6.104539871215820312e+00 1.469067001342773438e+01 9.662650108337402344e+00 9.359999656677246094e+00 2.015150070190429688e+00 3.328130006790161133e+00 1.116576957702636719e+01 5.873799920082092285e-01 4.226480007171630859e+00 3.514899969100952148e+00 3.757450103759765625e+00 9.790980339050292969e+00 2.979000091552734375e+00 1.273596954345703125e+01 1.110087013244628906e+01 1.212067031860351562e+01 1.462397003173828125e+01 1.057726955413818359e+01 1.502256965637207031e+01 1.346900016069412231e-01 5.401040077209472656e+00 2.624929904937744141e+00 3.945230007171630859e+00 1.140907001495361328e+01 2.765939950942993164e+00 1.330537033081054688e+01 1.229207038879394531e+01 1.292506980895996094e+01 1.393206977844238281e+01 9.574179649353027344e+00 1.399606990814208984e+01 4.093579769134521484e+00 3.869080066680908203e+00 4.012370109558105469e+00 9.866060256958007812e+00 3.104429960250854492e+00 7.047910213470458984e+00 1.028417015075683594e+01 4.081180095672607422e+00 3.848380088806152344e+00 5.528500080108642578e+00 1.325327014923095703e+01 7.675680160522460938e+00 4.045219898223876953e+00 2.583120107650756836e+00 5.117879867553710938e+00 2.668090105056762695e+00 1.078767013549804688e+01 6.742899894714355469e+00 1.046446990966796875e+01 2.796289920806884766e+00 3.746560096740722656e+00 4.576769828796386719e+00 1.267696952819824219e+01 8.723110198974609375e+00 5.404709815979003906e+00 1.018999963998794556e-01 2.975270032882690430e+00 1.208697032928466797e+01 5.476480007171630859e+00 1.154646968841552734e+01 8.584779739379882812e+00 5.414209842681884766e+00 2.892640113830566406e+00 7.309860229492187500e+00 3.002680063247680664e+00 1.203717041015625000e+01 1.009617042541503906e+01 1.463916969299316406e+01 6.815569877624511719e+00 1.164877033233642578e+01 5.385009765625000000e+00 1.004817008972167969e+01 7.810359954833984375e+00 4.335639953613281250e+00 3.565880060195922852e+00 7.133550167083740234e+00 1.470890045166015625e+00 1.178186988830566406e+01 1.498867034912109375e+01 6.921860218048095703e+00 4.754380226135253906e+00 1.868199944496154785e+00 1.475347042083740234e+01 4.899399876594543457e-01 5.351280212402343750e+00 8.610059738159179688e+00 1.448626995086669922e+01 3.167799949645996094e+00 8.341170310974121094e+00 1.218247032165527344e+01 1.373357009887695312e+01 5.984159946441650391e+00 5.234250068664550781e+00 1.835549950599670410e+00 4.514800012111663818e-01 1.477937030792236328e+01 5.000569820404052734e+00 8.588829994201660156e+00 1.296137046813964844e+01 2.184499979019165039e+00 7.231800079345703125e+00 1.213346958160400391e+01 7.602800130844116211e-01 4.208409786224365234e+00 1.521366977691650391e+01 9.689769744873046875e+00 1.273896980285644531e+01 1.120926952362060547e+01 1.101146984100341797e+01 1.139146995544433594e+01 8.057860374450683594e+00 1.501947021484375000e+01 7.950459957122802734e+00 3.101739883422851562e+00 1.369539976119995117e+00 3.947279930114746094e+00 1.226439952850341797e+00 1.077457046508789062e+01 1.378007030487060547e+01 1.054786968231201172e+01 1.181947040557861328e+01 1.131737041473388672e+01 6.730160236358642578e+00 8.753769874572753906e+00 2.832050085067749023e+00 1.371029973030090332e+00 8.348050117492675781e+00 7.578879833221435547e+00 1.280056953430175781e+01 2.865920066833496094e+00 1.047356986999511719e+01 8.298620223999023438e+00 1.483417034149169922e+01 1.154506969451904297e+01 2.305409908294677734e+00 8.976639747619628906e+00 3.625200092792510986e-01 1.125146961212158203e+01 7.984049797058105469e+00 6.147210121154785156e+00 1.255607032775878906e+01 8.916680335998535156e+00 1.392837047576904297e+01 7.539529800415039062e+00 1.355086994171142578e+01 1.083277034759521484e+01 2.889630079269409180e+00 7.930419921875000000e+00 5.503299832344055176e-01 1.005016994476318359e+01 8.784300088882446289e-01 1.109626960754394531e+01 1.004267024993896484e+01 1.457007026672363281e+01 7.073490142822265625e+00 1.175940036773681641e+00 1.382497024536132812e+01 5.010839939117431641e+00 1.004117012023925781e+01 7.743770122528076172e+00 1.129586982727050781e+01 5.924940109252929688e+00 3.949100077152252197e-01 1.118266963958740234e+01 8.595270156860351562e+00 1.312057018280029297e+01 7.066830158233642578e+00 1.800770044326782227e+00 1.485447025299072266e+01 5.164229869842529297e+00 8.961700439453125000e+00 9.302900314331054688e+00 1.118126964569091797e+01 6.513840198516845703e+00 5.442790031433105469e+00 2.542409896850585938e+00 1.105916976928710938e+01 8.849200248718261719e+00 1.322356986999511719e+01 1.338786983489990234e+01 4.123060226440429688e+00 5.469190120697021484e+00 9.735690116882324219e+00 2.987999916076660156e-01 1.456707000732421875e+01 1.150856971740722656e+01 4.940889835357666016e+00 1.761569976806640625e+00 9.691539764404296875e+00 8.251159667968750000e+00 1.184006977081298828e+01 1.370217037200927734e+01 4.520110130310058594e+00 3.992059946060180664e+00 1.040357017517089844e+01 1.462086963653564453e+01 2.640799880027770996e-01 1.163677024841308594e+01 9.673040390014648438e+00 9.153470039367675781e+00 1.297216987609863281e+01 9.221100211143493652e-01 6.556699872016906738e-01 5.480239868164062500e+00 8.516380310058593750e+00 1.535410976409912109e+01 5.635980129241943359e+00 3.654649972915649414e+00 7.787399768829345703e+00 6.802700161933898926e-01 3.368969917297363281e+00 8.362119674682617188e+00 6.777160167694091797e+00 1.692620038986206055e+00 1.764029979705810547e+00 4.737309932708740234e+00 7.255949974060058594e+00 1.529226970672607422e+01 4.691649913787841797e+00 1.176356983184814453e+01 1.216347026824951172e+01 2.544650077819824219e+00