-1.147316589355468750e+02
-1.136005249023437500e+02
-1.137726898193359375e+02
-1.136747665405273438e+02
-1.139849472045898438e+02
-1.143008804321289062e+02
-1.140940780639648438e+02
-1.141301956176757812e+02
-1.138536148071289062e+02
-1.140419540405273438e+02
-1.139138107299804688e+02
-1.138382034301757812e+02
-1.139672851562500000e+02
-1.139306335449218750e+02
