 
 
         256 atoms
           3 atom types
          64 bonds
           1 bond types
 
          0.00000000         12.38463000   xlo xhi
          0.00000000         12.38463000   ylo yhi
          0.00000000         12.38463000   zlo zhi
          0.00000000          0.00000000          0.00000000  xy xz yz
 
Masses
 
  1  15.99940
  2   1.00794
  3  15.99940
 
Atoms # full
 
         1         1   1   6          9.25545000          0.27562200          7.98873000
         2         2   1   6          8.96101000         11.25750000          4.33494000
         3         3   1   6          2.09636000          6.63601000          9.81175000
         4         4   1   6          1.05304000          0.30103600          2.30015000
         5         5   1   6          6.56486000          9.01346000         11.27920000
         6         6   1   6          0.75275000          6.78588000         11.94050000
         7         7   1   6         11.58340000          6.02568000          5.68473000
         8         8   1   6          1.17474000          1.08693000         10.80580000
         9         9   1   6          1.03432000          7.53372000          7.40956000
        10        10   1   6          5.97142000          9.12220000          7.38641000
        11        11   1   6          5.60051000         10.72250000          9.52667000
        12        12   1   6          0.80486400         10.31680000          8.75024000
        13        13   1   6          4.56147000         11.11350000          0.94646200
        14        14   1   6          4.11816000          7.19239000          2.50209000
        15        15   1   6         10.60850000          0.88120800          1.95870000
        16        16   1   6          6.15957000          9.14818000          4.46930000
        17        17   1   6          8.14988000          6.54802000          5.30271000
        18        18   1   6          3.18135000          9.60999000          3.20231000
        19        19   1   6          7.99811000          1.31313000          3.30323000
        20        20   1   6          0.99328900         10.67030000          4.29494000
        21        21   1   6          2.14007000         10.50820000          6.40650000
        22        22   1   6          9.22283000         11.00880000          1.03823000
        23        23   1   6          5.26217000          1.04666000          2.37431000
        24        24   1   6          7.12853000          0.63835800          0.07813680
        25        25   1   6         10.36510000          5.23742000          7.94491000
        26        26   1   6          6.67497000          3.33446000          9.12080000
        27        27   1   6          4.38026000          3.69883000          1.06169000
        28        28   1   6          8.68017000          3.45497000          1.63559000
        29        29   1   6          3.95977000          2.76734000         11.09860000
        30        30   1   6          8.76773000          8.99646000          9.02248000
        31        31   1   6          6.66469000          9.94682000          1.87543000
        32        32   1   6         11.37150000          0.79019700          4.83594000
        33        33   1   6          7.43907000          0.53963600          9.79480000
        34        34   1   6         11.90680000          0.39667400          8.29282000
        35        35   1   6          4.55323000          5.34161000         10.06690000
        36        36   1   6          3.77328000          0.02310610          5.64861000
        37        37   1   6          9.27320000          9.48253000          6.36501000
        38        38   1   6          2.00877000          5.94452000          4.35541000
        39        39   1   6          2.81154000          1.95802000          2.90131000
        40        40   1   6         10.03980000          1.47462000         11.60540000
        41        41   1   6          5.55864000          6.33844000          7.77637000
        42        42   1   6         11.62680000          3.89030000          3.90398000
        43        43   1   6         10.36920000         10.88230000         10.97660000
        44        44   1   6          4.95138000          2.10398000          7.45152000
        45        45   1   6          8.11227000          6.31539000          2.32855000
        46        46   1   6          3.50885000          0.13544900         10.08020000
        47        47   1   6         11.11150000          7.35487000          9.31841000
        48        48   1   6          1.22336000         11.10890000         12.00480000
        49        49   1   6          6.82653000          4.43007000         11.94010000
        50        50   1   6          5.06075000          6.81762000         12.17980000
        51        51   1   6          1.55208000          3.23712000          5.19357000
        52        52   1   6          2.16148000          5.05833000          1.56572000
        53        53   1   6          3.64362000          7.55256000          6.29099000
        54        54   1   6          1.78979000          1.84883000          7.66059000
        55        55   1   6         11.49390000          8.90925000          4.70472000
        56        56   1   6          0.88441200          2.84413000          0.64311600
        57        57   1   6         11.25370000          4.39741000          1.05857000
        58        58   1   6          3.16521000          9.62271000         10.63400000
        59        59   1   6          9.93404000          8.39777000          2.48313000
        60        60   1   6         11.65520000          9.10215000          0.37876500
        61        61   1   6          8.44549000          1.90287000          5.80723000
        62        62   1   6          7.97213000          4.40465000          7.04534000
        63        63   1   6         11.22640000          3.50578000          9.82288000
        64        64   1   6          1.37506000          3.74213000          9.78275000
        65         1   2   1         -3.72046000          0.31153700          8.74354000
        66         2   2   1         -2.49578000         -0.87333000          4.42444000
        67         3   2   1          1.64894000          6.89095000          8.98454000
        68         4   2   1          1.50772000         -0.19403000         13.99737000
        69         5   2   1          6.56068000          9.21077000         12.20660000
        70         6   2   1          1.40258000          6.71613000         11.22220000
        71         7   2   1         -1.25273000          5.60161000          6.47177000
        72         8   2   1          0.90992600          1.90176000         11.26010000
        73         9   2   1          1.83242000          7.34385000          6.86000000
        74        10   2   1          6.40232000          9.06950000          6.53868000
        75        11   2   1          6.18456000         -0.87343000          9.62411000
        76        12   2   1          1.28860000         -2.12143000          9.57409000
        77        13   2   1          4.17020000         -1.98503000         12.75071600
        78        14   2   1          3.63308000          6.57570000         15.43458000
        79        15   2   1         -2.06633000          0.72506500         15.25548000
        80        16   2   1          5.21644000          9.22089000          4.58590000
        81        17   2   1         -4.09729000          5.83318000          5.92062000
        82        18   2   1          2.25838000          9.75251000         15.80066000
        83        19   2   1         -4.18496000          2.00049000         15.07635000
        84        20   2   1          1.50845000         -1.55593000          5.10614000
        85        21   2   1          2.75829000          9.81648000          6.50270000
        86        22   2   1         -2.86729000         -0.49463000         13.65578000
        87        23   2   1          6.09860000          0.98185800         15.18749000
        88        24   2   1          6.22993000          0.85302500         12.77349500
        89        25   2   1         -1.74473000          4.37683000          8.32545000
        90        26   2   1          5.93175000          3.12900000          8.60031000
        91        27   2   1          3.70236000          4.39170000         13.55947000
        92        28   2   1         -4.20641000          3.65859000         13.22156000
        93        29   2   1          4.10267000          1.82416000         10.84600000
        94        30   2   1         -3.83615000          9.13058000          8.06776000
        95        31   2   1          7.44461000         -1.84463000         14.11601000
        96        32   2   1         -1.47053000          0.96230500          5.65397000
        97        33   2   1          7.11237000          1.47422000          9.62368000
        98        34   2   1         -0.37463000         -0.51803000          8.04938000
        99        35   2   1          4.35039000          4.44937000         10.31430000
       100        36   2   1          4.14799000         -0.58383000          5.02844000
       101        37   2   1         -2.21243000          9.34922000          5.92166000
       102        38   2   1          2.01703000          5.02283000          4.55073000
       103        39   2   1          2.62632000          2.37755000          3.73542000
       104        40   2   1         -2.07873000          0.61036700         11.23560000
       105        41   2   1          5.24535000          5.88933000          8.58689000
       106        42   2   1         -0.83523000          4.15583000         15.36179000
       107        43   2   1         -1.55233000         -2.08153000         11.63560000
       108        44   2   1          5.19863000          1.37751000          6.88911000
       109        45   2   1         -4.36969000          6.51700000         15.65799000
       110        46   2   1          2.84052000          0.65424000          9.61586000
       111        47   2   1         -0.87933000          7.16323000         10.15270000
       112        48   2   1          1.23306000         -0.32263000         11.74000000
       113        49   2   1          6.87916000          5.34858000         12.22200000
       114        50   2   1          5.51505000          7.56172000         11.81440000
       115        51   2   1          1.52599000          2.80088000          6.07621000
       116        52   2   1          1.86635000          5.62426000         13.25353100
       117        53   2   1          3.42195000          7.04191000          5.45191000
       118        54   2   1          1.05317000          1.26536000          7.68371000
       119        55   2   1         -1.34443000          8.92636000          3.84670000
       120        56   2   1          1.01242000          2.04122000         13.55850000
       121        57   2   1         -0.27773000          3.95635000         13.33466400
       122        58   2   1          3.56394000         -2.24693000          9.94881000
       123        59   2   1         -3.00074000          9.20247000         14.89317000
       124        60   2   1         -1.17303000          8.78912000         13.52898000
       125        61   2   1         -3.66438000          1.57213000          6.69006000
       126        62   2   1         -3.68656000          4.76835000          7.59663000
       127        63   2   1         -0.19083000          3.37195000         10.06220000
       128        64   2   1          1.58679000          4.70619000          9.81048000
       129         1   2   1         -3.09276000         -0.66563000          7.73085000
       130         2   2   1         -3.86846000         -0.34133000          3.90904000
       131         3   2   1          3.03055000          6.34323000          9.66089000
       132         4   2   1          1.72115000          1.03643000         15.01258000
       133         5   2   1          6.08536000          9.74238000         10.88120000
       134         6   2   1          0.59474000          7.74223000         12.10940000
       135         7   2   1         -1.24893000          6.93169000          5.53758000
       136         8   2   1          0.49180600          1.15483000         10.07360000
       137         9   2   1          0.32795300          6.91896000          7.06696000
       138        10   2   1          5.66346000          8.23161000          7.57364000
       139        11   2   1          6.00814000         -2.06953000          8.71004000
       140        12   2   1          0.31234100          9.48973000          8.80000000
       141        13   2   1          5.37332000         -1.74933000         13.77572000
       142        14   2   1          3.63341000          8.00358000         15.19179000
       143        15   2   1         -0.97503000          0.22117100         14.32882000
       144        16   2   1          6.17971000          8.19326000          4.45553000
       145        17   2   1         -3.69721000          7.36809000          5.57504000
       146        18   2   1          3.48510000         -2.03883000         14.99129000
       147        19   2   1         -4.27955000          1.71110000          4.19092000
       148        20   2   1          0.89155700         -0.88343000          3.76542000
       149        21   2   1          1.56603000         -1.99223000          7.24152000
       150        22   2   1         -3.19117000         -1.36283000         12.44141550
       151        23   2   1          5.20357000          0.23641600         14.24859000
       152        24   2   1         -4.63426000          1.06182000         13.09208400
       153        25   2   1         -1.65143000          6.00586000          8.46394000
       154        26   2   1          6.53420000          3.66786000          9.98814000
       155        27   2   1          4.18968000          2.96861000         14.08042000
       156        28   2   1         -2.73582000          3.63252000         13.77454000
       157        29   2   1          4.17886000          2.91776000         12.09700000
       158        30   2   1         -4.49188000          9.00019000          9.60108000
       159        31   2   1          6.60622000          9.54926000         15.17770000
       160        32   2   1         -0.74093000          1.67859000          4.48611000
       161        33   2   1          7.47823000          0.58960800         10.80000000
       162        34   2   1         -1.40103000          0.59980500          8.15086000
       163        35   2   1          4.81671000          5.70748000         10.97040000
       164        36   2   1          3.22171000         -0.57873000          6.18896000
       165        37   2   1         -3.37085000         -2.13023000          5.70605000
       166        38   2   1          1.11429000          6.24966000          4.58379000
       167        39   2   1          3.69833000          1.51280000         15.34446000
       168        40   2   1         -2.05903000          1.56199000         12.53917700
       169        41   2   1          6.11373000          5.71713000          7.24375000
       170        42   2   1         -1.34743000          4.56508000          4.34986000
       171        43   2   1         -2.40874000         -2.16753000         10.29720000
       172        44   2   1          3.96261000          2.09317000          7.38715000
       173        45   2   1         -4.21877000          5.31410000         14.72874000
       174        46   2   1          4.08626000         -0.20523000          9.36978000
       175        47   2   1         -1.94773000          7.99286000          9.48811000
       176        48   2   1          1.88652000         -1.78813000         11.47700000
       177        49   2   1          6.08880000          4.11862000         12.53460100
       178        50   2   1          4.69389000          7.11126000         13.06654400
       179        51   2   1          0.61741100          3.57247000          4.95911000
       180        52   2   1          1.99397000          5.58265000         14.76782000
       181        53   2   1          4.39547000          6.94036000          6.71136000
       182        54   2   1          1.56254000          2.53237000          8.31769000
       183        55   2   1         -0.15233000          9.56949000          4.53581000
       184        56   2   1          1.45486000          3.49099000         13.53548000
       185        57   2   1         -1.03533000          5.36509000         13.22766000
       186        58   2   1          3.08535000          8.67591000         10.46150000
       187        59   2   1         -3.06424000          7.62493000         14.68567000
       188        60   2   1         -0.01103000          9.71670000         12.99099400
       189        61   2   1         -4.17989000          2.83332000          6.02590000
       190        62   2   1          7.38233000          4.06417000          7.77235000
       191        63   2   1         -1.75313000          2.96624000         10.43430000
       192        64   2   1          2.06551000          3.30596000         10.35170000
       193         1   3  -8          9.25545000          0.27562200          7.98873000
       194         2   3  -8          8.96101000         11.25750000          4.33494000
       195         3   3  -8          2.09636000          6.63601000          9.81175000
       196         4   3  -8          1.05304000          0.30103600          2.30015000
       197         5   3  -8          6.56486000          9.01346000         11.27920000
       198         6   3  -8          0.75275000          6.78588000         11.94050000
       199         7   3  -8         11.58340000          6.02568000          5.68473000
       200         8   3  -8          1.17474000          1.08693000         10.80580000
       201         9   3  -8          1.03432000          7.53372000          7.40956000
       202        10   3  -8          5.97142000          9.12220000          7.38641000
       203        11   3  -8          5.60051000         10.72250000          9.52667000
       204        12   3  -8          0.80486400         10.31680000          8.75024000
       205        13   3  -8          4.56147000         11.11350000          0.94646200
       206        14   3  -8          4.11816000          7.19239000          2.50209000
       207        15   3  -8         10.60850000          0.88120800          1.95870000
       208        16   3  -8          6.15957000          9.14818000          4.46930000
       209        17   3  -8          8.14988000          6.54802000          5.30271000
       210        18   3  -8          3.18135000          9.60999000          3.20231000
       211        19   3  -8          7.99811000          1.31313000          3.30323000
       212        20   3  -8          0.99328900         10.67030000          4.29494000
       213        21   3  -8          2.14007000         10.50820000          6.40650000
       214        22   3  -8          9.22283000         11.00880000          1.03823000
       215        23   3  -8          5.26217000          1.04666000          2.37431000
       216        24   3  -8          7.12853000          0.63835800          0.07813680
       217        25   3  -8         10.36510000          5.23742000          7.94491000
       218        26   3  -8          6.67497000          3.33446000          9.12080000
       219        27   3  -8          4.38026000          3.69883000          1.06169000
       220        28   3  -8          8.68017000          3.45497000          1.63559000
       221        29   3  -8          3.95977000          2.76734000         11.09860000
       222        30   3  -8          8.76773000          8.99646000          9.02248000
       223        31   3  -8          6.66469000          9.94682000          1.87543000
       224        32   3  -8         11.37150000          0.79019700          4.83594000
       225        33   3  -8          7.43907000          0.53963600          9.79480000
       226        34   3  -8         11.90680000          0.39667400          8.29282000
       227        35   3  -8          4.55323000          5.34161000         10.06690000
       228        36   3  -8          3.77328000          0.02310610          5.64861000
       229        37   3  -8          9.27320000          9.48253000          6.36501000
       230        38   3  -8          2.00877000          5.94452000          4.35541000
       231        39   3  -8          2.81154000          1.95802000          2.90131000
       232        40   3  -8         10.03980000          1.47462000         11.60540000
       233        41   3  -8          5.55864000          6.33844000          7.77637000
       234        42   3  -8         11.62680000          3.89030000          3.90398000
       235        43   3  -8         10.36920000         10.88230000         10.97660000
       236        44   3  -8          4.95138000          2.10398000          7.45152000
       237        45   3  -8          8.11227000          6.31539000          2.32855000
       238        46   3  -8          3.50885000          0.13544900         10.08020000
       239        47   3  -8         11.11150000          7.35487000          9.31841000
       240        48   3  -8          1.22336000         11.10890000         12.00480000
       241        49   3  -8          6.82653000          4.43007000         11.94010000
       242        50   3  -8          5.06075000          6.81762000         12.17980000
       243        51   3  -8          1.55208000          3.23712000          5.19357000
       244        52   3  -8          2.16148000          5.05833000          1.56572000
       245        53   3  -8          3.64362000          7.55256000          6.29099000
       246        54   3  -8          1.78979000          1.84883000          7.66059000
       247        55   3  -8         11.49390000          8.90925000          4.70472000
       248        56   3  -8          0.88441200          2.84413000          0.64311600
       249        57   3  -8         11.25370000          4.39741000          1.05857000
       250        58   3  -8          3.16521000          9.62271000         10.63400000
       251        59   3  -8          9.93404000          8.39777000          2.48313000
       252        60   3  -8         11.65520000          9.10215000          0.37876500
       253        61   3  -8          8.44549000          1.90287000          5.80723000
       254        62   3  -8          7.97213000          4.40465000          7.04534000
       255        63   3  -8         11.22640000          3.50578000          9.82288000
       256        64   3  -8          1.37506000          3.74213000          9.78275000
 
Bonds
 
         1   1         1       193
         2   1         2       194
         3   1         3       195
         4   1         4       196
         5   1         5       197
         6   1         6       198
         7   1         7       199
         8   1         8       200
         9   1         9       201
        10   1        10       202
        11   1        11       203
        12   1        12       204
        13   1        13       205
        14   1        14       206
        15   1        15       207
        16   1        16       208
        17   1        17       209
        18   1        18       210
        19   1        19       211
        20   1        20       212
        21   1        21       213
        22   1        22       214
        23   1        23       215
        24   1        24       216
        25   1        25       217
        26   1        26       218
        27   1        27       219
        28   1        28       220
        29   1        29       221
        30   1        30       222
        31   1        31       223
        32   1        32       224
        33   1        33       225
        34   1        34       226
        35   1        35       227
        36   1        36       228
        37   1        37       229
        38   1        38       230
        39   1        39       231
        40   1        40       232
        41   1        41       233
        42   1        42       234
        43   1        43       235
        44   1        44       236
        45   1        45       237
        46   1        46       238
        47   1        47       239
        48   1        48       240
        49   1        49       241
        50   1        50       242
        51   1        51       243
        52   1        52       244
        53   1        53       245
        54   1        54       246
        55   1        55       247
        56   1        56       248
        57   1        57       249
        58   1        58       250
        59   1        59       251
        60   1        60       252
        61   1        61       253
        62   1        62       254
        63   1        63       255
        64   1        64       256
