LAMMPS data file via write_data, version 29 Sep 2021, timestep = 100000

432 atoms
2 atom types

0.8609103758762569 19.19759208218716 xlo xhi
0.8609103758762569 19.19759208218716 ylo yhi
0.28697012529223276 6.399197360728964 zlo zhi

Masses

1 15.999
2 1.00784

Atoms # atomic

13 1 2.234520528775183 2.6195819132576643 1.6763716707970335 0 0 0
34 1 3.908503782195567 4.02370599643652 2.889662242853988 0 0 0
43 1 2.224486064667045 2.6976506026961733 4.898175142355271 0 0 0
22 1 3.871446239230663 4.0250506868944615 0.5321736344381357 0 0 1
138 2 4.702936696621649 3.3579926883139466 4.401182338494919 0 0 2
422 2 1.7279774858628982 3.3712059434096417 5.427638211294657 1 1 -5
350 2 3.6542771298842704 5.033704615508835 3.1346456484266465 0 1 -1
293 2 18.290677411632416 4.2618192699998865 5.905954285133144 -1 1 -1
19 1 5.34850660385726 2.825466644898927 4.823729658848461 0 0 0
423 2 4.593609337641839 4.5505660244988615 1.1140725227872266 1 0 -1
248 2 3.1290353316554946 6.995362387641739 0.9826209150545102 1 -1 -2
78 2 2.979695296804562 3.846780911407018 3.1374923517096738 0 0 1
28 1 18.692159257479638 3.5958856004227298 6.167536807237271 -1 0 -1
363 2 3.789773556117456 6.298865063211844 3.9210647956361897 0 1 -2
10 1 18.75722192495408 3.624242301277161 3.178010062108171 -1 0 0
143 2 1.1731099044065871 3.4275492112222805 2.535418372936969 1 1 0
417 2 4.474740878266267 1.4284395212957386 3.4340263266607223 1 0 4
296 2 2.3357828811956374 2.9505015378751747 0.8594438806806755 0 0 1
200 2 3.1247532728627823 2.2720109657322274 1.8884888888586044 0 0 -1
113 2 2.8043705098052296 4.956737440451156 4.883489855036054 1 0 -2
359 2 4.484637354511122 4.666137027214481 5.917352290923678 0 1 -1
327 2 18.614110632043584 2.208640781271283 4.1135562384221895 -1 0 0
175 1 2.069287521450648 5.202831137529762 4.455344216528859 0 0 0
401 2 1.048049822047286 4.245540252169473 3.748401368074322 1 0 0
7 1 3.6083855823043796 1.3174179172854261 3.024375263028856 0 0 0
317 2 1.3924520798930593 1.6322339247489963 1.2484099765374774 0 1 1
31 1 18.97549746465208 1.367858720899548 3.643527491327632 -1 0 0
37 1 4.424780661146332 1.1983215748520764 5.948613622551577 0 0 -1
1 1 0.8886919021933466 0.9652554421954413 0.5701374238190688 0 0 0
240 2 5.155448035271931 2.9611539147275527 1.5450856142899643 0 2 1
71 2 2.8420650487214285 2.356106458563665 4.296271701537199 0 0 0
209 2 8.274329727951152 2.993702317542563 2.9911743412511687 0 1 3
30 2 10.330639652129213 18.54311549947211 1.092779112536941 0 0 -2
4 1 5.735530721045741 2.4531633408076705 2.2510478729857226 0 0 0
76 1 7.117422907574785 3.9402055759384593 6.168992828500942 0 0 -1
61 1 8.360875823075972 2.9067706391759263 1.957141843570444 0 0 0
91 1 6.914672632271044 4.153167256618689 3.3449291887103336 0 0 0
79 1 8.735553743719251 2.72554826878943 4.790585636054698 0 0 0
321 2 8.942928898433275 4.745677149910543 0.491715848110122 -1 0 -1
39 2 6.259773110227951 4.757795566127697 3.0007845543949148 -1 0 1
344 2 9.514652475665955 3.553968630099773 3.038526410320146 0 0 -1
116 2 7.430049390461773 0.9162648682678942 5.672941255862453 0 1 1
52 1 9.900112223895828 4.023798366735818 0.29755887903433337 0 0 0
50 2 7.818292795639274 3.403717533762908 5.836833505109556 -1 0 -2
266 2 5.5490309108936895 3.29524617139486 5.692705214082451 0 0 -1
227 2 6.803548171856916 3.410007266134638 0.9104441442050386 1 1 1
380 2 7.577269211644191 5.192988161998151 0.8858919383796904 -1 1 1
309 2 10.922685381125424 17.993989496436598 2.815501823488344 0 0 1
80 2 8.673781144890079 2.00527218860021 1.6515308817040597 0 0 1
263 2 9.821138235941454 3.7010169765479155 1.2621923782865894 1 2 2
73 1 10.103764692761937 1.0531075655186783 0.7048467383112385 0 0 0
56 2 6.463800698449163 4.551497944084543 4.110511073399403 0 0 0
365 2 5.346666665100126 2.8655700516164475 3.116817385416227 1 1 1
278 2 9.107109595067977 2.875375916454862 5.816699449269774 1 1 0
55 1 9.817479356976282 1.1988125548347568 3.4638926008120396 0 0 0
82 1 10.390937850909632 4.254848316450163 3.2609386770706315 0 0 0
269 2 12.905650894589321 3.0369257561485927 3.830699937364042 0 1 0
398 2 11.737614930966494 1.1988694419865797 5.806194242603934 0 1 -4
67 1 11.903890472133453 2.1628268097417616 5.274461501950843 0 0 0
106 1 12.928856528463255 3.970868563042767 3.4965024442313393 0 0 0
127 1 11.670140756188353 2.0588713547274353 2.1411846726000583 0 0 0
64 1 12.824426339487008 3.8678672661739055 6.315427750017251 0 0 -1
26 2 11.029691382631716 1.8341747939056368 1.4011660006261375 1 0 -1
357 2 11.535556539677005 2.981945807959192 2.586531947631648 0 1 1
255 2 12.692491242534548 3.1749269522155306 0.9114978246904369 0 1 1
420 2 11.798376171858777 18.13615927063146 0.45828067215924156 1 1 1
162 2 12.126353967489692 5.273714692808498 0.9826485114813709 1 1 3
270 2 13.398792367617624 4.181213687953388 2.6212249595940422 0 1 1
406 1 13.44993008260498 18.847737784583472 3.585358630858295 0 0 0
176 2 12.680538521829863 19.12388624898799 1.4564802433112276 0 -1 2
311 2 15.140378127537009 2.0785548917808225 5.294778908476391 1 1 1
294 2 11.132616457535422 2.874764790995966 5.398017857026863 -1 0 -2
124 1 12.469826517768416 18.81922689858733 0.5938525182326584 0 -1 0
329 2 12.982121042895873 18.638247437986145 4.379813383653868 0 0 1
85 1 14.473410704709924 2.56104192540539 4.953632089946461 0 0 -1
229 1 11.502800271749493 5.720299841683573 1.612541370998619 0 0 0
312 2 10.98384097184995 6.51743152964725 3.540634661703196 -1 1 -1
282 2 13.69985621035892 4.231475724809816 0.49958961519937406 0 0 0
69 2 9.857015482833638 4.7551890013875635 3.9030809178645494 -1 -1 1
147 2 13.942086063915433 5.547892341640709 5.815075714086993 0 -1 0
48 2 10.803081640851795 1.3226952494119975 3.385485166781105 -1 1 2
68 2 15.151204944599655 3.314407634030868 3.616567771530829 0 0 0
120 2 18.049109913225692 3.0991414577202945 0.6486775591848059 -1 1 2
360 2 15.359120013179911 2.156980632990479 1.7321481083061694 0 1 0
38 2 16.720470795755233 1.2851817369864034 4.538131926329032 -1 0 1
371 2 14.15319675439029 1.8845695034450325 0.921128064213143 0 0 3
276 2 15.08177784846024 6.327243627049361 1.9638633212618066 0 0 -1
339 2 13.78180851707867 5.695523127668303 2.6976445894266354 -1 1 -1
389 2 18.7380565970888 1.359990008820541 5.989380715475955 1 0 -1
90 2 17.57256606976167 3.09573672278265 2.46749805706551 -1 1 -2
122 2 15.314048977848554 4.27606757976678 5.437839015729839 0 0 2
384 2 18.709635923292424 18.60630987259595 0.9879972198094499 0 0 3
109 1 14.437635509144272 2.1632161312273017 1.8456610718921607 0 0 0
83 2 15.484017014722864 18.32574223956034 3.83093270821191 0 0 0
330 2 1.4551398054518638 1.9481423602270003 3.339148709390841 1 1 -1
63 2 15.675770418587218 4.527301235698829 2.517476428399942 -1 0 1
36 2 17.086698718383218 5.4993378746897505 3.9913524155569946 -1 0 -1
139 1 15.879616125359433 3.8629926793732983 3.2541300451819413 0 0 0
100 1 16.025989910874316 4.52301636485833 6.169446780678969 0 0 -1
115 1 16.89150643476595 2.205489241129854 5.10245272341307 0 0 0
133 1 17.253553378274454 2.5249984721818133 1.6512223144247038 0 0 0
103 1 16.427804259455794 18.946526789086626 3.481940448176847 0 -1 0
41 2 14.950490914549244 18.273102499727976 5.937250313315029 -1 0 2
130 1 14.49957283570438 5.427941776794158 2.0703398247272884 0 0 0
136 1 13.56628255710081 5.968058827804079 5.02489657962548 0 0 -1
142 1 17.521989916836013 5.7028559708358095 4.800083978275968 0 0 0
72 2 15.778226266752965 3.806538029437307 0.5503769912288913 -1 0 0
413 2 17.059991350344134 3.099909074730669 4.9480635493654805 0 0 -1
112 1 17.330334429984546 5.730165268339316 2.3866051239624797 0 0 0
348 2 1.3772537190979355 6.493173539147802 5.39075075811985 1 0 2
402 2 13.525817517900494 2.214151689644702 5.228410935303336 0 0 0
33 2 0.9985127322277462 5.349071372627308 1.4391956445163128 1 0 -3
146 2 6.0354399398181 5.659334963707192 0.8116404570931732 0 -1 -2
40 1 1.9622351950226349 5.727718389483392 1.6508625911036443 0 0 0
151 1 3.99773569648192 6.468652830150667 3.0412297862844806 0 0 0
169 1 3.6822228399404247 6.7687314410232515 0.3057787066506454 0 0 0
187 1 2.8305620560826092 8.36234425090688 4.325913817681041 0 0 0
148 1 2.6623864487981255 8.878685129657235 1.5752973583727359 0 0 0
157 1 19.15397971769547 7.2385829087749425 5.669805524145145 -1 0 -1
161 2 0.9013171617627004 7.300188484030925 2.415132057093901 1 0 -4
125 2 19.189080897699547 10.711611459938577 0.8594206223975474 -1 0 2
163 1 5.87065689462758 8.398788392115861 4.249429213476998 0 0 0
224 2 3.8056475386536164 9.323753020798547 0.6593730961151365 0 0 0
198 2 2.465966892391533 5.015784770035794 1.3137019485988133 0 0 3
152 2 1.445854200834388 6.2937979824258745 3.6738617403810707 1 1 -2
181 1 5.574829331155711 8.029459543337746 1.7909128908675778 0 0 0
372 2 3.250605049172996 6.284681355843799 2.7111411013141984 0 1 2
244 1 0.9036839706962287 7.073680761922483 3.294937495456807 1 0 0
275 2 1.9150440590728008 8.518769777250409 3.8797543738333276 1 0 -2
291 2 1.4777519852742893 10.60315203111861 5.661756907443747 0 0 -2
6 2 3.423020642533646 9.073980692666662 4.067298912822665 1 0 1
54 2 3.403376724583566 7.383340804205824 5.848554721539057 0 -1 1
117 2 5.256817531825523 8.953464674794917 2.1521769620395004 2 -1 1
46 1 4.9538699279447345 5.353787525060706 5.1593477904142 0 0 0
395 2 1.1032146688704236 8.14698584665237 5.498807646694475 1 0 -1
2 2 18.11534763673174 7.856562812358238 4.496353011913015 -1 0 -1
320 2 6.391792026345302 8.104137058593892 1.3310594648106238 -1 0 -1
166 1 4.421357160243353 9.684970118764097 6.1664257414360595 0 0 0
126 2 1.9012079157602797 9.354247266461726 1.308717371318723 0 0 -1
221 2 4.9034393379646835 8.3425410841698 4.302991228858406 0 0 1
59 2 17.12173000185595 5.0906217600744155 5.451608230885027 -1 1 1
94 1 8.530559177734073 5.500227692917084 4.668629387886369 0 0 0
201 2 8.110205838442518 4.564197560568196 4.467185228783033 0 0 -1
3 2 5.549995634212832 6.030166148998383 5.349184831521052 1 1 1
218 2 19.03081155094764 9.742818858612692 2.085174864555535 -1 0 -2
81 2 5.000510465215908 6.318843540968549 1.9939960413102022 1 0 0
128 2 6.584028527264503 8.646413769116542 4.832262649404964 1 0 1
16 1 5.44982295517629 5.465679578742953 1.5306544383979543 0 0 0
88 1 8.35055359942356 5.542719192066088 1.4111991320807988 0 0 0
302 2 7.478547757670641 6.551056067833933 5.555820159029988 -1 0 0
153 2 6.45053224343745 7.152839463435022 2.900474736324491 1 0 0
356 2 8.215322880689362 5.158205808113893 2.163047727944238 0 0 3
131 2 8.257899652043061 6.112262278539882 3.820206044829995 1 -1 1
70 1 7.379975254860384 7.011870699858157 3.2354660240574358 0 0 0
193 1 6.768950106429658 6.898668696148153 5.999478563040804 0 0 -1
223 1 8.360333655938046 8.635161660961657 4.9619843834774775 0 0 0
199 1 8.3763632589073 8.910235051390437 2.3668341687611387 0 0 0
183 2 9.057263557855794 9.247320632580244 2.9543811957264894 0 0 -2
299 2 10.091551087054805 6.9610842484449265 0.862256772364261 0 0 -1
211 1 10.316743681952582 7.046454345323989 3.157675961173486 0 0 0
98 2 12.448716824797092 9.12280083595769 4.7863246115889195 0 -1 -4
386 2 7.080972571978278 9.474123694744447 1.8110707223316422 0 0 -3
21 2 7.40158780591721 6.486823135827355 2.429392213589053 0 0 4
15 2 9.843158001456628 7.427215356678909 3.7856461337655274 -1 1 -2
135 2 8.822497177783475 8.052309403434045 5.743137230236138 1 0 -2
347 2 10.657532405790295 10.318958168862336 6.095053615535857 0 1 0
306 2 8.810443647246622 9.496982082118905 5.072544543264492 -1 1 -3
396 2 10.913575866652574 8.91995721037083 5.100439233470789 0 1 -1
14 2 10.940542743774532 4.902073160088815 5.361068784845902 0 0 -1
271 1 11.386127549263337 5.587627731919174 4.859764222312884 0 0 0
191 2 8.745616692938789 8.680454117378908 1.5188966419525847 0 1 1
141 2 11.578143155329657 7.909398452067565 2.349877610902224 0 -1 0
429 2 11.101415334604319 11.155363710999438 4.645437250710905 0 0 1
205 1 10.081917554766997 9.53050260505212 6.368570538972064 0 0 -1
217 1 9.355240472046546 7.002591492378885 6.375863680154867 0 0 -1
228 2 9.259484470330435 6.7642665972634894 5.414974310452124 1 0 0
241 1 13.144851840424714 7.4923015675371945 0.7573136949123866 0 0 0
283 1 11.561526217536803 8.935601904778734 2.1319203456606783 0 0 1
118 1 13.372025806535188 7.368613121097604 3.1390479419779127 0 0 0
250 1 11.832175030633342 8.460390487977296 4.96333234230768 0 0 0
47 2 7.131476300649948 7.793965110256261 6.2294478774158835 -1 0 1
207 2 13.91306702463601 11.05399736449701 0.9652726066344934 -1 -1 0
284 2 13.582875984416285 7.962718373600053 2.4339041972595767 1 0 0
326 2 11.373353728828757 4.905612146924544 4.063417807363686 -1 0 0
239 2 10.701231380990398 5.133839256189754 1.5111821697452685 -1 0 -1
345 2 12.451468973996697 9.739439227881569 3.266619308031583 0 -1 -1
392 2 12.532191677768802 7.632857613469985 6.076739287542327 0 1 -2
405 2 12.613693975947244 7.327852930504366 3.708091580378611 0 0 2
265 1 15.173729923708072 8.827769068825116 2.030459255402355 0 0 0
251 2 15.719457600001993 8.36518335245921 2.758996562849979 0 -1 5
222 2 13.154526143267912 6.427577747621508 0.7799404104673409 -1 0 1
381 2 10.514535965716274 10.851524998556908 2.956416279811792 -1 0 3
111 2 14.45398871856066 8.172589658589768 5.628625539701062 0 0 3
11 2 13.115595448433718 5.266729356946594 4.5348267699843605 -1 0 -1
95 2 2.0898400245852216 8.037176067704188 1.4194756729229308 1 0 3
246 2 14.87475773823083 9.47686162104707 4.767810322536421 0 0 -2
253 1 15.0584717412273 8.772266634467744 5.338392278390842 0 0 0
74 2 15.848206052700164 5.896742758758331 0.463173512948576 0 0 1
393 2 18.24315581389356 6.173841523380207 2.5706373048906292 0 1 1
215 2 16.271492374051896 7.738735210262072 4.284552920977221 0 0 -2
174 2 17.05619798553164 9.737011459415646 0.6815956679178514 0 1 1
426 2 15.769208623380162 6.263959981640167 3.8243626144148286 0 1 -4
8 2 14.246448727160873 7.537557628979457 3.5882654212685354 -1 0 1
149 2 16.739830957587298 9.913083323889381 2.799013095632199 -1 1 2
186 2 15.674646587687153 7.353702579173251 6.139112913469393 -1 1 -1
167 2 17.209101533479938 7.2824512614504116 1.6121486273787662 -1 0 3
145 1 15.821830711849623 6.898383490081718 0.7600484869467953 -1 0 0
247 1 15.533247122326996 7.182020545443858 3.856711144841085 0 0 0
259 1 17.517129142485494 8.525225512070541 4.848490522543844 0 0 0
277 1 17.55612260335286 8.308188792632688 1.428313864217991 0 0 0
216 2 17.43611214832221 4.807264249426754 2.4905315826165046 0 0 1
102 2 14.593132909824206 8.23197087146878 1.5215322375003053 0 0 -1
110 2 18.083749850596064 8.030404052407096 0.6520309440207801 0 -1 1
154 1 16.187531544817183 10.398980909176117 3.5391038098129504 -1 0 0
225 2 18.518683936343905 10.716533595824611 3.55177200406435 0 0 -2
368 2 4.6714198213383415 11.182853444400344 3.4283253080514906 1 0 2
32 2 2.5204552178633 10.665768852348942 3.8686658122227806 0 0 -1
431 2 4.89206024727735 9.23548319854043 5.570672619283774 1 0 -2
178 1 4.171450044787038 10.289319164665615 2.73822397709772 0 0 0
87 2 4.791317082718239 14.790138572107205 2.5092844203272593 0 0 0
184 1 2.6799208067773286 11.370323972009501 1.186902077806148 0 0 0
295 1 2.575381429472204 11.03087779984779 4.780537647403839 0 0 0
160 1 4.344790959176542 13.373810480148776 3.3236840624478496 0 0 0
301 1 4.045250477307276 12.916090431299832 5.925922938504555 0 0 -1
414 2 2.7118763355888573 12.11563358109493 1.7786521275849123 1 -1 2
188 2 6.402873570947945 11.484133014932816 4.691728833136228 0 0 -1
336 2 2.687486403757519 10.746151336374988 1.8551991290539962 0 0 0
132 2 4.0951778826379925 13.238002548751552 4.207849866358078 0 -1 2
243 2 2.9485422971072253 10.314633007132054 5.422296717372587 1 0 -1
338 2 3.8260233371198007 16.35854341530326 5.366221903579612 0 0 -1
300 2 3.6707190906814735 13.720011501912465 6.215260424413846 0 0 0
313 1 5.608449068615102 11.221167339485795 5.033822669223134 0 0 -1
325 1 5.264408996543218 15.297314997073594 1.999955469862462 0 0 0
60 2 4.6668719135630115 11.240395679806188 5.265651337832945 0 -1 -1
92 2 1.687574128762249 12.28294750988443 3.383682354765755 1 0 -2
108 2 3.1928141649635067 15.486107705348404 1.114722930452957 1 0 1
171 2 3.3347954284820647 12.421887458246587 5.456907531176093 -1 -1 -1
307 1 5.420154754460722 15.387321293091937 4.910149762407924 0 0 0
387 2 3.0431122215789217 17.426252590222553 1.1724148477368774 0 0 -1
333 2 1.9878801259404433 12.469920631564454 6.076037901611413 0 0 0
245 2 6.223883892348383 10.351287483968846 0.7592446381917404 1 0 0
51 2 6.125566199598661 9.986564867812854 3.5546627682998104 0 -1 3
233 2 5.860326462431377 12.999869540207253 3.322432349351405 0 0 -4
220 1 5.740450675970677 11.662200991692568 1.6802687362618072 0 0 0
137 2 8.16997356559429 11.960002704260948 2.3852047137232923 0 -1 1
65 2 7.893664478164973 10.155161317341038 6.209509651648068 0 0 1
190 1 7.113682473386692 9.649534675253376 0.7268127490894727 0 0 1
432 2 8.032814041627569 12.446872374912521 4.853555281160415 1 0 -1
399 2 5.214195260005884 12.176516302969919 1.0887044644484438 1 0 5
177 2 7.693115754885332 9.891676516256808 3.5774559652765863 0 -1 -1
202 1 6.983420301384098 10.512367398918922 3.482554146346546 0 0 0
192 2 8.583012754409935 11.713523716205799 0.35866189956442884 0 0 1
197 2 7.171817534015901 14.373972943269907 5.783061649992344 0 -1 1
235 1 8.758392679545372 11.510385468891881 1.7594417368048676 0 0 1
214 1 8.342047890453294 11.643563479147659 5.372736846958507 0 0 0
337 1 6.72200818710794 13.93059130085981 0.4590809261579074 0 0 0
367 1 6.7922177713105745 13.322536132855967 3.1851514885396366 0 0 0
75 2 10.601267054182738 9.19824145661626 1.0233115656936218 0 -2 2
182 2 8.469390531101476 10.549710942631808 1.9633965197778367 0 -1 -1
361 1 9.759308958717998 13.174381303361741 0.3493597896480238 0 0 0
159 2 7.162206008698725 13.230999527583638 0.774424350113225 -1 -2 1
29 2 6.269572736041909 12.39537318757651 2.05364274679455 0 -1 1
203 2 8.194933580461313 15.67125434158684 4.078304301510326 0 0 -1
369 2 9.67960478518151 11.604349918241919 3.961721352235551 0 0 -2
267 2 5.149319749019359 14.38503727939171 5.097181204343569 0 -1 0
335 2 9.261311829913756 13.314533588984906 2.8142914060991946 0 0 0
379 1 8.371931881125015 15.104325350862936 4.8667631635405195 0 0 0
18 2 7.705884488715908 15.258741833634444 1.2120360745629424 -1 -1 0
268 1 13.28871624357602 10.465957443239226 6.396352393867123 0 0 -1
35 2 10.604636189502973 8.970151244532794 2.3516773671620084 -1 -1 1
297 2 13.647381110439913 9.68497340477343 6.180546680050467 0 0 1
415 1 13.349519609204481 9.79251869839999 3.7403667856921485 0 0 0
23 2 10.874474974092552 11.921647906804738 1.835349243458194 0 0 0
234 2 9.760523807683121 12.484377399935942 5.8553399912571304 -1 0 0
114 2 12.083935597512971 13.411495851116841 4.786571219152026 1 -1 -2
226 1 9.756043780906975 10.682720340538426 3.6724968815414374 0 0 0
86 2 9.014705329430857 13.834352000672908 0.6616486768005565 0 0 0
323 2 10.64096057442112 13.623924402526153 0.8895978468093105 0 0 4
210 2 15.399915323144306 11.067634873188906 5.580669672149513 0 0 0
382 1 9.365108506209125 13.276011964088545 3.8615874566122765 0 0 0
258 2 12.060621834082777 11.080205300014434 1.3796259505984705 0 0 1
411 2 12.244533858803024 10.99698225692596 5.705510661455127 0 1 -1
196 1 11.409926466409296 11.10401193159534 1.9269837956277067 0 0 0
238 1 11.43329071378264 11.709874385612267 5.3547752662720365 0 0 0
232 1 13.442380351917844 13.636118153298675 0.34218757532626326 0 0 1
208 1 13.203073348413684 12.697901006708426 3.760794246383444 0 0 0
252 2 12.55122053471914 13.717216680173015 1.0388859147400114 0 0 3
318 2 12.594764330607642 12.118632228798011 4.330973252946797 -1 1 0
42 2 13.266951442258293 12.38817876650961 2.7051082886889652 -1 -1 0
105 2 13.855228679019378 13.005165416425086 0.8939799967355659 0 -1 3
374 2 13.724957867522251 10.419265453356942 3.231856014675667 0 0 -2
274 1 14.36878193824551 11.748543466454047 2.1795836892939615 0 0 0
123 2 13.167630372956792 15.012228934641337 6.144990712602076 0 -1 3
140 2 11.786118732083926 16.764934433562026 2.4758043584964473 0 -1 1
164 2 14.057275334286778 11.914724104900504 5.118216487524329 0 0 0
416 2 15.449471336018219 13.985884171118297 2.0758407695492185 0 0 -4
45 2 9.260726036778143 14.208231330793835 4.048627344251207 -1 -1 0
9 2 18.005612237472292 10.97521616105164 5.16855151341877 -1 -1 -1
170 2 16.53065410902375 9.708051601181285 4.134096778871945 -1 0 1
303 2 17.47237753399793 8.281787400510959 5.7407685459239515 0 0 -2
286 1 16.769619750937387 10.453211546990548 6.300680093406396 0 0 0
319 1 1.9008881732099865 12.991178916138631 2.784887025336095 0 0 0
262 1 15.085072774055613 11.921897861329395 5.295782337918562 0 0 0
155 2 15.272477038801055 11.672861093953664 2.7177265288012773 -1 0 0
172 1 0.8897728853536009 10.140098278354966 6.278940522628767 0 0 -1
84 2 17.208562101727594 12.225267110379535 4.22170633480434 -1 0 -3
119 2 15.955936223230834 10.624026145268795 0.8484872949255714 -1 0 2
256 1 19.14465189578022 10.021861507870176 2.9619820676286475 0 0 0
404 2 1.8834101030971526 14.245812042508403 4.832144838526779 1 0 1
289 1 1.1873604515761857 13.022528655546338 6.0245842703544294 0 0 -1
168 2 18.169859759750587 12.080766680553356 0.6700452325023437 -2 0 0
17 2 16.966673158528025 12.526906071543456 2.3991611619130406 -1 -1 0
342 2 15.842335795497263 12.955418481904012 3.570016492136539 -1 0 -1
254 2 19.086347406971157 11.76347618185196 2.0766851998141895 0 0 1
257 2 16.939289719306387 13.486348892542088 1.3069145456612559 0 1 3
20 2 19.096072330253726 12.843222812549932 5.132431059815151 0 -1 0
385 1 16.520801280388167 13.235767607556014 0.47025999048833 0 0 0
280 1 18.108375273294122 11.839467555170542 1.6472308257433628 0 0 0
391 1 16.77450927550484 12.839096078698939 3.325194693408506 0 0 0
409 1 18.150667776999114 11.65195150425935 4.335750469228347 0 0 -1
101 2 4.5064707895755935 10.78561683114578 2.026983020751359 1 -1 1
96 2 1.0219668573895404 13.632599285616672 2.4439624955099397 1 0 -1
308 2 16.33522032387617 12.302461992693884 0.4720094948555327 0 0 -3
173 2 17.2149779415061 14.204243432116332 5.345266834614925 -1 0 0
165 2 17.438497485848472 14.966876263718067 4.241439505125016 -1 -1 0
62 2 18.15033084969005 14.731118468848464 0.6806138428702411 -1 -1 -1
150 2 3.2312236890532375 18.770055687172636 3.171774647341388 1 -1 -1
279 2 4.32930757096112 2.1060489912709484 5.521660291743757 1 1 1
354 2 2.1109361772149535 15.142968774207066 3.7198858220371123 1 1 -3
236 2 3.9121548672099027 19.042070502400527 5.310837627597717 1 -1 1
230 2 18.606450786592582 16.281595212845307 3.5660829176477136 0 0 -1
331 1 2.427831606138155 14.835418090247918 4.488934060213464 0 0 0
298 1 2.5977128461604067 14.934995347175258 1.6174003747395769 0 0 0
107 2 3.4350389473843834 13.552771033846168 2.922370816164846 1 0 0
242 2 4.761495372597983 16.568264241836637 0.5778430272176118 0 -1 1
353 2 5.504623395619871 18.459297060778916 5.0762647170611395 -1 -1 1
12 2 17.470194112315184 1.674207999275577 2.277711605445714 -1 1 3
425 2 1.8806449239714853 18.886861564099853 4.386615822648018 0 0 -2
366 2 2.769282211499177 17.210628082915242 4.065822678237719 0 0 -2
25 1 2.3540938939470246 18.287617862950796 4.925996853830361 0 -1 -1
292 1 3.7451081886839006 16.770802201997185 6.3090695448884215 0 0 -1
322 1 3.4487682301365736 16.644113460040572 3.5501682148315843 0 0 0
328 1 2.3451141697268465 17.806837111279066 1.6742102972605954 0 0 0
231 2 3.924611849725306 17.331800940091007 3.190757100544617 1 0 -2
53 2 1.8213278614973265 18.177125483581072 5.80099643618824 1 0 -1
285 2 2.6303831036634557 18.657086999664685 1.7378099178821056 1 0 -1
334 1 5.822364774541036 17.870984604934783 4.42587182401445 0 0 0
44 2 1.49367370534921 17.190214481291456 1.8787676304659748 -1 -1 2
237 2 1.4398146014510553 16.0279536010989 5.796901764689791 1 -1 -1
305 2 7.0024729368713325 14.180122621390613 3.4615804239545214 0 0 0
194 2 5.919898192888253 17.541115448212224 2.140918119704624 0 -1 0
310 1 1.102177010991825 16.88157311347772 3.3498407323693047 0 0 0
358 1 7.142590563310924 1.1077082913519558 3.051273392009242 0 1 0
5 2 8.024440874580051 18.286251345308308 1.1653053749973372 -1 0 -2
206 2 6.482316157121122 18.929156448431307 2.7282687433388664 -1 0 0
213 2 5.559328683980641 14.736275715178952 1.199414300035341 1 -1 4
324 2 6.727323464946409 16.686019801314437 4.159556468210961 0 0 0
179 2 9.175846701229364 15.648300746373108 1.7609229151219616 0 -1 -1
58 1 4.978704918155611 17.941606199388147 1.9522648151975843 0 -1 0
260 2 7.416729445570635 18.801665338174253 3.770185962948507 1 0 6
351 2 9.168586867606928 17.940837851288116 4.184496128784689 0 -1 -2
362 2 6.607487816118487 1.9601671048344862 5.818623999715414 0 1 -3
49 1 6.999986959787178 1.4120947773249055 6.3688164320695995 0 0 -1
390 2 7.133615939062422 2.1045064996158587 2.7774686466418967 1 0 1
370 1 8.684628132328024 14.90620923774948 1.4247085582765726 0 0 0
66 2 4.8961336067508485 17.848148382152452 4.0306418955186825 0 0 1
375 2 6.708884729113538 16.371371008647593 1.3569863616306006 0 0 -2
134 2 4.990303370059084 18.524632485633234 1.264338168742161 1 0 0
315 2 4.765800719541563 15.705037497237965 4.254211802315664 -1 0 -2
104 2 9.492900814128777 18.31337290005481 2.296814620731849 0 -1 -2
93 2 8.523698350653312 15.77443552374239 5.440802114377105 0 -1 -2
304 1 7.018384828773246 16.593243987191965 0.42500769468817823 0 0 0
346 1 7.166007086300271 16.198822521766502 3.1944788124575405 0 0 0
364 1 8.555937261438192 17.742165164597594 4.941141441642466 0 0 -1
376 1 8.597901647974172 18.077057584495854 2.084986788692449 0 0 0
273 2 6.300237338787123 16.138583648459964 5.998684583946394 0 -1 -1
189 2 9.915699381365254 1.0056072476916282 5.761059803478518 -1 1 0
314 2 11.959678960782488 14.33000950039473 2.6327277637027393 -1 0 2
383 2 10.085569415203183 15.38800758638978 5.801946214879831 0 0 0
343 1 11.48718133220512 14.12343805918015 4.958964797441159 0 0 0
129 2 12.271840499219019 15.374485049798952 4.233858303448963 -1 0 0
341 2 7.537303064848025 16.843938591639272 2.511710640300202 0 1 -3
272 2 12.091990604667764 17.370625441004364 4.240614498414121 0 -1 0
185 2 9.018895967286243 17.337288808105782 5.789294560890095 0 -1 -2
349 1 10.530510817577838 16.045939914520982 0.41282830926813124 0 0 0
24 2 13.351323198583984 1.4838983009246933 3.5240081854807657 -1 0 -1
340 1 10.128413571984069 15.560883613843577 3.27282928083833 0 0 -1
158 2 9.610452300689133 1.890674423155747 4.174433883399381 -1 1 -3
408 2 13.504073963536339 15.901343837131721 3.06615113207969 0 0 2
428 2 11.516682894427875 15.740412070558014 0.531168918825033 1 0 1
249 2 10.106553319578587 16.599645860581845 3.25355677572218 0 0 -3
373 1 11.571224122665367 13.997348782602515 1.8098630218276948 0 0 0
419 2 10.804350287459204 13.92564477269903 4.330307773097192 0 0 0
204 2 14.638197040616904 15.154452624111487 5.018490589939076 0 0 0
212 2 13.619762555575273 16.352988993586862 4.8233324349188225 1 -1 -1
287 2 10.899747780783732 17.22008352961005 5.01093579357868 -1 -1 -1
97 1 11.497667113070994 17.997145507459955 4.633034598039334 0 -1 -1
355 1 12.653102978087762 15.986320105411988 3.4975821568442633 0 0 0
352 1 11.209766730792483 17.355322603765572 2.094513812711093 0 0 0
412 1 13.164929705202994 16.119279674103293 5.865845912143725 0 0 -1
144 2 10.461094675546883 15.494356810398308 2.365244639258853 1 -1 2
77 2 15.773030495561649 16.859840495714877 5.408526939394567 0 -1 4
394 1 14.132887807289334 17.1825904187723 2.192804916605197 0 0 0
156 2 14.925521658506534 14.973207570106737 3.010271093799104 -1 -1 1
99 2 13.710070737474892 16.873774869261467 1.3983436886380818 -1 0 0
264 2 17.067595644599947 18.44540405350301 2.687299071399404 0 -1 2
377 2 17.237204991544353 17.3723590864629 4.408718504357434 0 0 1
121 1 15.331025105735703 18.62816087668277 0.6878148836824625 0 -1 0
27 2 14.782447452557141 18.16341159639512 1.3713079268502972 -1 -1 -2
378 2 0.9580903197492674 16.274484110754884 1.0343163824375228 1 0 1
219 2 19.171860154835457 17.715593560332913 3.5997123935197393 -1 0 0
397 1 14.789253254147175 14.741100276023353 2.0447506684776138 0 0 0
281 2 14.232514557608486 13.725446730508322 4.642362618633343 0 0 -2
427 1 15.03827191631745 14.40281168457253 4.360253705941087 0 0 0
424 1 15.016528043630908 16.89358413886714 4.5606780927664845 0 0 -1
410 2 13.665401544557929 17.936984585047334 2.5608944995165914 0 1 0
180 2 2.0582992270875797 14.343688534308228 0.986120241881854 0 0 0
421 1 18.11152316328981 14.61260772843006 1.6662302903338175 0 0 0
316 1 1.1910943328079329 16.787234583332992 6.3541453534344186 0 0 -1
290 2 18.27803918554475 17.07378411494954 5.493829431468473 -1 0 -2
288 2 15.931277853918086 16.197336956292425 2.310422421479945 1 -1 2
261 2 15.685707411562651 16.679837043387852 3.9147993924057776 0 0 -1
332 2 16.50914519723355 18.541652249563334 1.04371326551934 -1 -1 1
403 1 17.901960605208515 14.780555606994335 5.065817252241903 0 0 0
89 2 17.202490401216558 17.250144717680662 1.6259849459236944 -1 -1 -2
407 2 16.667435919410984 16.731081274818983 6.156685044695121 0 0 0
195 2 16.488488588907884 15.31826891083281 0.6417630359648757 0 0 -1
57 2 17.146220690317428 15.611810619256763 2.1900918863320324 -1 0 1
388 1 15.954380628985941 16.01569651907476 6.3747936941881775 0 0 -1
400 1 17.413437779092845 18.177681620067034 1.4673160240786332 0 0 0
418 1 16.754395317638092 16.264024161430076 2.82328559038081 0 0 0
430 1 17.55197048125423 17.63263973384366 5.270566519976391 0 0 0

Velocities

13 -16.01951355228448 -8.171415195126896 -11.089294058734412
34 -6.4789669091914375 -8.761938560933638 2.828291690647957
43 -7.96077357289554 -2.573670108732111 -13.209529361904034
22 7.293342061290913 11.700095554445952 -7.671906783596592
138 -37.6029198070639 10.357487750628666 14.258292540134393
422 58.87237508437812 -34.45338341212456 36.228556745700864