
     Program PWSCF v.5.4.0 starts on 22Sep2019 at 18:47:33 

     This program is part of the open-source Quantum ESPRESSO suite
     for quantum simulation of materials; please cite
         "P. Giannozzi et al., J. Phys.:Condens. Matter 21 395502 (2009);
          URL http://www.quantum-espresso.org", 
     in publications or presentations arising from this work. More details at
     http://www.quantum-espresso.org/quote

           HOST :    @host@
           ARCH :    
             CC :    cc
            CPP :    cpp
            F90 :    mpif90
            F77 :    gfortran
         DFLAGS :    -D__GFORTRAN -D__STD_F95 -D__FFTW3 -D__MPI -D__PARA
      BLAS LIBS :    -lopenblas
    LAPACK LIBS :    -lopenblas
       FFT LIBS :    -lfftw3
      MASS LIBS :    

     Parallel version (MPI), running on    28 processors
     R & G space division:  proc/nbgrp/npool/nimage =      28
     Waiting for input...
     Reading input from standard input
Warning: card &IONS ignored
Warning: card / ignored
Warning: card &CELL ignored
Warning: card / ignored

     Current dimensions of program PWSCF are:
     Max number of different atomic species (ntypx) = 10
     Max number of k-points (npk) =  40000
     Max angular momentum in pseudopotentials (lmaxx) =  3

     IMPORTANT: XC functional enforced from input :
     Exchange-correlation      = PBE ( 1  4  3  4 0 0)
     Any further DFT definition will be discarded
     Please, verify this is what you really want


     gamma-point specific algorithms are used

     Subspace diagonalization in iterative solution of the eigenvalue problem:
     a serial algorithm will be used


     Parallelization info
     --------------------
     sticks:   dense  smooth     PW     G-vecs:    dense   smooth      PW
     Min         445     445    110                37558    37558    4694
     Max         448     448    112                37564    37564    4708
     Sum       12517   12517   3125              1051747  1051747  131683
     Tot        6259    6259   1563



     bravais-lattice index     =            1
     lattice parameter (alat)  =      18.8973  a.u.
     unit-cell volume          =    6748.3346 (a.u.)^3
     number of atoms/cell      =            5
     number of atomic types    =            2
     number of electrons       =         8.00
     number of Kohn-Sham states=            4
     kinetic-energy cutoff     =     110.0000  Ry
     charge density cutoff     =     440.0000  Ry
     convergence threshold     =      1.0E-06
     mixing beta               =       0.5000
     number of iterations used =            8  plain     mixing
     Exchange-correlation      = PBE ( 1  4  3  4 0 0)

     celldm(1)=  18.897261  celldm(2)=   0.000000  celldm(3)=   0.000000
     celldm(4)=   0.000000  celldm(5)=   0.000000  celldm(6)=   0.000000

     crystal axes: (cart. coord. in units of alat)
               a(1) = (   1.000000   0.000000   0.000000 )  
               a(2) = (   0.000000   1.000000   0.000000 )  
               a(3) = (   0.000000   0.000000   1.000000 )  

     reciprocal axes: (cart. coord. in units 2 pi/alat)
               b(1) = (  1.000000  0.000000  0.000000 )  
               b(2) = (  0.000000  1.000000  0.000000 )  
               b(3) = (  0.000000  0.000000  1.000000 )  


     PseudoPot. # 1 for  H read from file:
     ../pseudo/H.tm.pbe.UPF
     MD5 check sum: 4b614d66af87240b7a5107bfa527a767
     Pseudo is Norm-conserving, Zval =  1.0
     Generated using "atomic" code by A. Dal Corso  v.5.2.0
     Using radial grid of  929 points,  0 beta functions with: 

     PseudoPot. # 2 for  C read from file:
     ../pseudo/C.tm.pbe.UPF
     MD5 check sum: a4f27fcb9b24331b00ace8e732a7e062
     Pseudo is Norm-conserving, Zval =  4.0
     Generated using "atomic" code by A. Dal Corso  v.5.2.0
     Using radial grid of 1073 points,  1 beta functions with: 
                l(1) =   1

     atomic species   valence    mass     pseudopotential
        H              1.00     1.00000      H( 1.00)
        C              4.00     1.00000      C( 1.00)

     No symmetry found



   Cartesian axes

     site n.     atom                  positions (alat units)
         1           H   tau(   1) = (   0.5443070   0.4278530   0.3608690  )
         2           H   tau(   2) = (   0.4076770   0.4934210   0.4515640  )
         3           H   tau(   3) = (   0.5647510   0.5773810   0.4631220  )
         4           H   tau(   4) = (   0.5467770   0.4164220   0.5412840  )
         5           C   tau(   5) = (   0.5159650   0.4775160   0.4539610  )

     number of k points=     1
                       cart. coord. in units 2pi/alat
        k(    1) = (   0.0000000   0.0000000   0.0000000), wk =   2.0000000

     Dense  grid:   525874 G-vectors     FFT dimensions: ( 128, 128, 128)

     Largest allocated arrays     est. size (Mb)     dimensions
        Kohn-Sham Wavefunctions         0.14 Mb     (    2354,    4)
        NL pseudopotentials             0.11 Mb     (    2354,    3)
        Each V/rho on FFT grid          1.25 Mb     (   81920)
        Each G-vector array             0.14 Mb     (   18782)
        G-vector shells                 0.02 Mb     (    2785)
     Largest temporary arrays     est. size (Mb)     dimensions
        Auxiliary wavefunctions         0.29 Mb     (    2354,   16)
        Each subspace H/S matrix        0.00 Mb     (      16,   16)
        Each <psi_i|beta_j> matrix      0.00 Mb     (       3,    4)
        Arrays for rho mixing          10.00 Mb     (   81920,    8)

     Initial potential from superposition of free atoms
     Check: negative starting charge=   -0.000385

     starting charge    7.99992, renormalised to    8.00000

     negative rho (up, down):  3.845E-04 0.000E+00
     Starting wfc are    8 randomized atomic wfcs

     total cpu time spent up to now is        3.0 secs

     per-process dynamical memory:   430.8 Mb

     Self-consistent Calculation

     iteration #  1     ecut=   110.00 Ry     beta=0.50
     Davidson diagonalization with overlap
     ethr =  1.00E-02,  avg # of iterations =  2.0

     negative rho (up, down):  1.818E-04 0.000E+00

     total cpu time spent up to now is        3.5 secs

     total energy              =     -16.02261507 Ry
     Harris-Foulkes estimate   =     -16.40370806 Ry
     estimated scf accuracy    <       0.67758372 Ry

     iteration #  2     ecut=   110.00 Ry     beta=0.50
     Davidson diagonalization with overlap
     ethr =  8.47E-03,  avg # of iterations =  2.0

     negative rho (up, down):  9.559E-05 0.000E+00

     total cpu time spent up to now is        4.0 secs

     total energy              =     -16.15321778 Ry
     Harris-Foulkes estimate   =     -16.17262604 Ry
     estimated scf accuracy    <       0.05035815 Ry

     iteration #  3     ecut=   110.00 Ry     beta=0.50
     Davidson diagonalization with overlap
     ethr =  6.29E-04,  avg # of iterations =  1.0

     negative rho (up, down):  5.445E-06 0.000E+00

     total cpu time spent up to now is        4.5 secs

     total energy              =     -16.15159289 Ry
     Harris-Foulkes estimate   =     -16.15706071 Ry
     estimated scf accuracy    <       0.01149719 Ry

     iteration #  4     ecut=   110.00 Ry     beta=0.50
     Davidson diagonalization with overlap
     ethr =  1.44E-04,  avg # of iterations =  3.0

     negative rho (up, down):  4.729E-06 0.000E+00

     total cpu time spent up to now is        5.0 secs

     total energy              =     -16.15352395 Ry
     Harris-Foulkes estimate   =     -16.15587477 Ry
     estimated scf accuracy    <       0.00548834 Ry

     iteration #  5     ecut=   110.00 Ry     beta=0.50
     Davidson diagonalization with overlap
     ethr =  6.86E-05,  avg # of iterations =  2.0

     negative rho (up, down):  2.333E-06 0.000E+00

     total cpu time spent up to now is        5.5 secs

     total energy              =     -16.15389463 Ry
     Harris-Foulkes estimate   =     -16.15402269 Ry
     estimated scf accuracy    <       0.00030407 Ry

     iteration #  6     ecut=   110.00 Ry     beta=0.50
     Davidson diagonalization with overlap
     ethr =  3.80E-06,  avg # of iterations =  3.0

     negative rho (up, down):  1.501E-07 0.000E+00

     total cpu time spent up to now is        6.1 secs

     total energy              =     -16.15403479 Ry
     Harris-Foulkes estimate   =     -16.15403338 Ry
     estimated scf accuracy    <       0.00000907 Ry

     iteration #  7     ecut=   110.00 Ry     beta=0.50
     Davidson diagonalization with overlap
     ethr =  1.13E-07,  avg # of iterations =  1.0

     total cpu time spent up to now is        6.5 secs

     total energy              =     -16.15403202 Ry
     Harris-Foulkes estimate   =     -16.15403505 Ry
     estimated scf accuracy    <       0.00000873 Ry

     iteration #  8     ecut=   110.00 Ry     beta=0.50
     Davidson diagonalization with overlap
     ethr =  1.09E-07,  avg # of iterations =  1.0

     total cpu time spent up to now is        7.0 secs

     total energy              =     -16.15403186 Ry
     Harris-Foulkes estimate   =     -16.15403251 Ry
     estimated scf accuracy    <       0.00000190 Ry

     iteration #  9     ecut=   110.00 Ry     beta=0.50
     Davidson diagonalization with overlap
     ethr =  2.37E-08,  avg # of iterations =  2.0

     total cpu time spent up to now is        7.5 secs

     End of self-consistent calculation

          k = 0.0000 0.0000 0.0000 ( 65842 PWs)   bands (ev):

   -16.7776  -9.3762  -9.2670  -9.0288

     highest occupied level (ev):    -9.0288

!    total energy              =     -16.15403208 Ry
     Harris-Foulkes estimate   =     -16.15403216 Ry
     estimated scf accuracy    <       0.00000018 Ry

     The total energy is the sum of the following terms:

     one-electron contribution =     -40.02347415 Ry
     hartree contribution      =      20.83564063 Ry
     xc contribution           =      -6.32404371 Ry
     ewald contribution        =       9.35784515 Ry

     convergence has been achieved in   9 iterations

     Forces acting on atoms (Ry/au):

     atom    1 type  1   force =     0.00799360    0.00007952   -0.00240033
     atom    2 type  1   force =    -0.00323469   -0.00367843    0.00750538
     atom    3 type  1   force =    -0.00592375   -0.02058118   -0.00754649
     atom    4 type  1   force =    -0.01013187    0.00592519   -0.01382376
     atom    5 type  2   force =     0.01129670    0.01825490    0.01626521

     Total force =     0.041472     Total SCF correction =     0.000202


     entering subroutine stress ...

          total   stress  (Ry/bohr**3)                   (kbar)     P=   -0.77
  -0.00000194  -0.00000119  -0.00000468         -0.28     -0.17     -0.69
  -0.00000119  -0.00000881   0.00000093         -0.17     -1.30      0.14
  -0.00000468   0.00000093  -0.00000486         -0.69      0.14     -0.71


     init_run     :      2.56s CPU      2.60s WALL (       1 calls)
     electrons    :      4.37s CPU      4.49s WALL (       1 calls)
     forces       :      0.93s CPU      0.93s WALL (       1 calls)
     stress       :      1.12s CPU      1.12s WALL (       1 calls)

     Called by init_run:
     wfcinit      :      0.20s CPU      0.20s WALL (       1 calls)
     potinit      :      0.97s CPU      0.98s WALL (       1 calls)

     Called by electrons:
     c_bands      :      1.91s CPU      1.95s WALL (       9 calls)
     sum_band     :      0.48s CPU      0.49s WALL (       9 calls)
     v_of_rho     :      1.92s CPU      1.97s WALL (      10 calls)
     mix_rho      :      0.25s CPU      0.25s WALL (       9 calls)

     Called by c_bands:
     init_us_2    :      0.04s CPU      0.05s WALL (      19 calls)
     regterg      :      1.88s CPU      1.91s WALL (       9 calls)

     Called by sum_band:

     Called by *egterg:
     h_psi        :      2.01s CPU      2.05s WALL (      27 calls)
     g_psi        :      0.01s CPU      0.01s WALL (      17 calls)
     rdiaghg      :      0.00s CPU      0.00s WALL (      26 calls)

     Called by h_psi:
     add_vuspsi   :      0.00s CPU      0.00s WALL (      27 calls)

     General routines
     calbec       :      0.75s CPU      0.76s WALL (      32 calls)
     fft          :      1.83s CPU      1.90s WALL (     117 calls)
     fftw         :      1.29s CPU      1.32s WALL (     124 calls)

     Parallel routines
     fft_scatter  :      1.32s CPU      1.38s WALL (     241 calls)

     PWSCF        :     9.33s CPU         9.54s WALL


   This run was terminated on:  18:47:42  22Sep2019            

=------------------------------------------------------------------------------=
   JOB DONE.
=------------------------------------------------------------------------------=
