    6    6    1    1
  0.5000000E+03  0.3000000E-08  0.1000000E-08  0.1000000E-08  0.5000000E-15
  1.000000000000000E-004
  CAR 
 unknown system                          
     16      2     12
 
  0.0000000E+00  0.2500000E+00  0.2500000E+00  0.5000000E+00
    1      -25.032203   1.000000
    2      -24.396465   1.000000
    3      -12.830374   1.000000
    4      -12.174958   1.000000
    5       -9.614893   1.000000
    6       -8.956323   1.000000
    7       -7.418038   1.000000
    8       -6.748126   1.000000
    9       -1.424431   0.000000
   10       -0.584813   0.000000
   11        0.119570   0.000000
   12        0.441789   0.000000
 
  0.0000000E+00 -0.2500000E+00  0.2500000E+00  0.5000000E+00
    1      -25.032203   1.000000
    2      -24.396465   1.000000
    3      -12.830374   1.000000
    4      -12.174958   1.000000
    5       -9.614893   1.000000
    6       -8.956323   1.000000
    7       -7.418038   1.000000
    8       -6.748126   1.000000
    9       -1.424428   0.000000
   10       -0.584827   0.000000
   11        0.124032   0.000000
   12        0.510551   0.000000
