       N       E                     dE             d eps       ncg     rms          rms(c)
DAV:   1     0.151811657893E+03    0.15181E+03   -0.47380E+03    64   0.142E+03
DAV:   2     0.501643894372E+02   -0.10165E+03   -0.10085E+03    96   0.141E+02
DAV:   3    -0.236917234618E+02   -0.73856E+02   -0.73016E+02    88   0.139E+02
DAV:   4    -0.318070456752E+02   -0.81153E+01   -0.81077E+01    64   0.590E+01
DAV:   5    -0.319978743457E+02   -0.19083E+00   -0.19079E+00    72   0.119E+01    0.181E+01
RMM:   6    -0.286620252060E+02    0.33358E+01   -0.12736E+01    64   0.251E+01    0.178E+01
RMM:   7    -0.286198644215E+02    0.42161E-01   -0.11864E+00    76   0.531E+00    0.157E+01
RMM:   8    -0.295281022139E+02   -0.90824E+00   -0.71439E+00    62   0.224E+01    0.121E+01
RMM:   9    -0.284026953553E+02    0.11254E+01   -0.26236E+00    64   0.119E+01    0.417E+00
RMM:  10    -0.284114537202E+02   -0.87584E-02   -0.19818E-01    76   0.256E+00    0.208E+00
RMM:  11    -0.284087204563E+02    0.27333E-02   -0.81866E-03    66   0.533E-01    0.144E+00
RMM:  12    -0.283996465235E+02    0.90739E-02   -0.78777E-02    60   0.167E+00    0.467E-01
RMM:  13    -0.284014473912E+02   -0.18009E-02   -0.84738E-03    76   0.450E-01    0.493E-01
RMM:  14    -0.284067940127E+02   -0.53466E-02   -0.40648E-03    67   0.367E-01    0.654E-01
RMM:  15    -0.284086691507E+02   -0.18751E-02   -0.39402E-03    58   0.482E-01    0.151E-01
RMM:  16    -0.284091231052E+02   -0.45395E-03   -0.10751E-03    72   0.215E-01    0.623E-02
RMM:  17    -0.284112712854E+02   -0.21482E-02   -0.30073E-03    60   0.373E-01    0.276E-01
RMM:  18    -0.284118110794E+02   -0.53979E-03   -0.83272E-04    74   0.159E-01    0.232E-01
RMM:  19    -0.284115967628E+02    0.21432E-03   -0.32876E-03    64   0.384E-01    0.325E-02
RMM:  20    -0.284116468129E+02   -0.50050E-04   -0.10858E-03    71   0.173E-01    0.154E-01
RMM:  21    -0.284111471424E+02    0.49967E-03   -0.14412E-03    57   0.240E-01    0.412E-02
RMM:  22    -0.284108737220E+02    0.27342E-03   -0.31024E-04    69   0.121E-01    0.673E-02
RMM:  23    -0.284110811709E+02   -0.20745E-03   -0.16117E-04    62   0.603E-02    0.344E-02
RMM:  24    -0.284111575994E+02   -0.76428E-04   -0.31136E-04    63   0.114E-01    0.531E-02
RMM:  25    -0.284114121223E+02   -0.25452E-03   -0.95068E-05    60   0.466E-02    0.376E-02
RMM:  26    -0.284119316732E+02   -0.51955E-03   -0.13462E-04    52   0.797E-02    0.189E-02
RMM:  27    -0.284124457993E+02   -0.51413E-03   -0.52985E-05    64   0.482E-02    0.419E-02
RMM:  28    -0.284129240208E+02   -0.47822E-03   -0.69259E-05    62   0.474E-02    0.115E-02
RMM:  29    -0.284131100229E+02   -0.18600E-03   -0.73615E-06    67   0.129E-02    0.561E-03
RMM:  30    -0.284132574344E+02   -0.14741E-03   -0.35175E-06    61   0.883E-03    0.276E-03
RMM:  31    -0.284132888503E+02   -0.31416E-04   -0.10790E-06    72   0.521E-03    0.609E-03
RMM:  32    -0.284133141728E+02   -0.25323E-04   -0.92803E-07    60   0.563E-03    0.371E-03
RMM:  33    -0.284133218838E+02   -0.77110E-05   -0.77310E-07    72   0.512E-03    0.594E-04
RMM:  34    -0.284133284028E+02   -0.65191E-05   -0.21196E-07    62   0.261E-03    0.204E-03
RMM:  35    -0.284133313809E+02   -0.29781E-05   -0.76382E-08    54   0.130E-03    0.213E-03
RMM:  36    -0.284133322573E+02   -0.87640E-06   -0.56092E-08    58   0.153E-03    0.109E-03
RMM:  37    -0.284133328796E+02   -0.62232E-06   -0.10281E-07    59   0.187E-03    0.196E-04
RMM:  38    -0.284133330955E+02   -0.21591E-06   -0.15564E-08    44   0.859E-04    0.710E-04
RMM:  39    -0.284133331413E+02   -0.45710E-07   -0.54677E-09    46   0.510E-04    0.633E-04
RMM:  40    -0.284133332470E+02   -0.10577E-06   -0.33767E-09    42   0.415E-04    0.282E-04
RMM:  41    -0.284133333825E+02   -0.13544E-06   -0.89285E-09    42   0.645E-04    0.184E-04
RMM:  42    -0.284133334279E+02   -0.45430E-07   -0.67665E-09    42   0.514E-04    0.267E-04
RMM:  43    -0.284133334724E+02   -0.44548E-07   -0.23752E-09    42   0.280E-04    0.771E-05
RMM:  44    -0.284133335613E+02   -0.88859E-07   -0.45891E-09    40   0.428E-04    0.262E-04
RMM:  45    -0.284133336311E+02   -0.69803E-07   -0.69195E-09    44   0.552E-04    0.534E-04
RMM:  46    -0.284133337575E+02   -0.12640E-06   -0.19561E-09    44   0.344E-04    0.263E-04
RMM:  47    -0.284133338429E+02   -0.85354E-07   -0.17248E-09    40   0.267E-04    0.233E-04
RMM:  48    -0.284133339191E+02   -0.76279E-07   -0.43036E-09    42   0.465E-04    0.699E-05
RMM:  49    -0.284133339388E+02   -0.19709E-07   -0.19003E-09    44   0.290E-04    0.837E-05
RMM:  50    -0.284133339499E+02   -0.11078E-07   -0.16362E-09    42   0.278E-04    0.135E-04
RMM:  51    -0.284133339556E+02   -0.56325E-08    0.00000E+00    30   0.144E-04
   1 F= -.28413334E+02 E0= -.28413334E+02  d E =-.674611E-17
