   6   6   0   0
  0.5000000E+03  0.3000000E-08  0.1000000E-08  0.1000000E-08  0.5000000E-15
  1.000000000000000E-004
  CAR 
 unknown system                          
      1.48436913    -26.76528296  301     -6.04298608      1.00000000
    -26.765  0.0000E+00  0.0000E+00
    -26.671  0.0000E+00  0.0000E+00
    -26.577  0.0000E+00  0.0000E+00
    -26.483  0.0000E+00  0.0000E+00
    -26.389  0.0000E+00  0.0000E+00
    -26.294  0.0000E+00  0.0000E+00
    -26.200  0.0000E+00  0.0000E+00
    -26.106  0.0000E+00  0.0000E+00
    -26.012  0.0000E+00  0.0000E+00
    -25.918  0.0000E+00  0.0000E+00
    -25.824  0.0000E+00  0.0000E+00
    -25.729  0.2328E-10  0.2192E-11
    -25.635  0.1392E-03  0.1311E-04
    -25.541  0.9566E+00  0.9010E-01
    -25.447  0.1675E+02  0.1667E+01
    -25.353  0.3531E+01  0.2000E+01
    -25.259  0.2988E-02  0.2000E+01
    -25.164  0.3258E-08  0.2000E+01
    -25.070  0.0000E+00  0.2000E+01
    -24.976  0.0000E+00  0.2000E+01
    -24.882  0.0000E+00  0.2000E+01
    -24.788  0.0000E+00  0.2000E+01
    -24.694  0.0000E+00  0.2000E+01
    -24.599  0.0000E+00  0.2000E+01
    -24.505  0.0000E+00  0.2000E+01
    -24.411  0.0000E+00  0.2000E+01
    -24.317  0.0000E+00  0.2000E+01
    -24.223  0.0000E+00  0.2000E+01
    -24.129  0.8319E-07  0.2000E+01
    -24.034  0.1996E-01  0.2002E+01
    -23.940  0.6948E+01  0.2656E+01
    -23.846  0.1399E+02  0.3973E+01
    -23.752  0.2818E+00  0.4000E+01
    -23.658  0.1117E-04  0.4000E+01
    -23.564  0.4810E-12  0.4000E+01
    -23.469  0.0000E+00  0.4000E+01
    -23.375  0.0000E+00  0.4000E+01
    -23.281  0.0000E+00  0.4000E+01
    -23.187  0.0000E+00  0.4000E+01
    -23.093  0.0000E+00  0.4000E+01
    -22.999  0.0000E+00  0.4000E+01
    -22.904  0.0000E+00  0.4000E+01
    -22.810  0.0000E+00  0.4000E+01
    -22.716  0.0000E+00  0.4000E+01
    -22.622  0.0000E+00  0.4000E+01
    -22.528  0.0000E+00  0.4000E+01
    -22.434  0.0000E+00  0.4000E+01
    -22.340  0.0000E+00  0.4000E+01
    -22.245  0.0000E+00  0.4000E+01
    -22.151  0.0000E+00  0.4000E+01
    -22.057  0.0000E+00  0.4000E+01
    -21.963  0.0000E+00  0.4000E+01
    -21.869  0.0000E+00  0.4000E+01
    -21.775  0.0000E+00  0.4000E+01
    -21.680  0.0000E+00  0.4000E+01
    -21.586  0.0000E+00  0.4000E+01
    -21.492  0.0000E+00  0.4000E+01
    -21.398  0.0000E+00  0.4000E+01
    -21.304  0.0000E+00  0.4000E+01
    -21.210  0.0000E+00  0.4000E+01
    -21.115  0.0000E+00  0.4000E+01
    -21.021  0.0000E+00  0.4000E+01
    -20.927  0.0000E+00  0.4000E+01
    -20.833  0.0000E+00  0.4000E+01
    -20.739  0.0000E+00  0.4000E+01
    -20.645  0.0000E+00  0.4000E+01
    -20.550  0.0000E+00  0.4000E+01
    -20.456  0.0000E+00  0.4000E+01
    -20.362  0.0000E+00  0.4000E+01
    -20.268  0.0000E+00  0.4000E+01
    -20.174  0.0000E+00  0.4000E+01
    -20.080  0.0000E+00  0.4000E+01
    -19.985  0.0000E+00  0.4000E+01
    -19.891  0.0000E+00  0.4000E+01
    -19.797  0.0000E+00  0.4000E+01
    -19.703  0.0000E+00  0.4000E+01
    -19.609  0.0000E+00  0.4000E+01
    -19.515  0.0000E+00  0.4000E+01
    -19.420  0.0000E+00  0.4000E+01
    -19.326  0.0000E+00  0.4000E+01
    -19.232  0.0000E+00  0.4000E+01
    -19.138  0.0000E+00  0.4000E+01
    -19.044  0.0000E+00  0.4000E+01
    -18.950  0.0000E+00  0.4000E+01
    -18.855  0.0000E+00  0.4000E+01
    -18.761  0.0000E+00  0.4000E+01
    -18.667  0.0000E+00  0.4000E+01
    -18.573  0.0000E+00  0.4000E+01
    -18.479  0.0000E+00  0.4000E+01
    -18.385  0.0000E+00  0.4000E+01
    -18.290  0.0000E+00  0.4000E+01
    -18.196  0.0000E+00  0.4000E+01
    -18.102  0.0000E+00  0.4000E+01
    -18.008  0.0000E+00  0.4000E+01
    -17.914  0.0000E+00  0.4000E+01
    -17.820  0.0000E+00  0.4000E+01
    -17.725  0.0000E+00  0.4000E+01
    -17.631  0.0000E+00  0.4000E+01
    -17.537  0.0000E+00  0.4000E+01
    -17.443  0.0000E+00  0.4000E+01
    -17.349  0.0000E+00  0.4000E+01
    -17.255  0.0000E+00  0.4000E+01
    -17.160  0.0000E+00  0.4000E+01
    -17.066  0.0000E+00  0.4000E+01
    -16.972  0.0000E+00  0.4000E+01
    -16.878  0.0000E+00  0.4000E+01
    -16.784  0.0000E+00  0.4000E+01
    -16.690  0.0000E+00  0.4000E+01
    -16.595  0.0000E+00  0.4000E+01
    -16.501  0.0000E+00  0.4000E+01
    -16.407  0.0000E+00  0.4000E+01
    -16.313  0.0000E+00  0.4000E+01
    -16.219  0.0000E+00  0.4000E+01
    -16.125  0.0000E+00  0.4000E+01
    -16.030  0.0000E+00  0.4000E+01
    -15.936  0.0000E+00  0.4000E+01
    -15.842  0.0000E+00  0.4000E+01
    -15.748  0.0000E+00  0.4000E+01
    -15.654  0.0000E+00  0.4000E+01
    -15.560  0.0000E+00  0.4000E+01
    -15.465  0.0000E+00  0.4000E+01
    -15.371  0.0000E+00  0.4000E+01
    -15.277  0.0000E+00  0.4000E+01
    -15.183  0.0000E+00  0.4000E+01
    -15.089  0.0000E+00  0.4000E+01
    -14.995  0.0000E+00  0.4000E+01
    -14.900  0.0000E+00  0.4000E+01
    -14.806  0.0000E+00  0.4000E+01
    -14.712  0.0000E+00  0.4000E+01
    -14.618  0.0000E+00  0.4000E+01
    -14.524  0.0000E+00  0.4000E+01
    -14.430  0.0000E+00  0.4000E+01
    -14.335  0.0000E+00  0.4000E+01
    -14.241  0.0000E+00  0.4000E+01
    -14.147  0.0000E+00  0.4000E+01
    -14.053  0.0000E+00  0.4000E+01
    -13.959  0.0000E+00  0.4000E+01
    -13.865  0.0000E+00  0.4000E+01
    -13.770  0.0000E+00  0.4000E+01
    -13.676  0.0000E+00  0.4000E+01
    -13.582  0.0000E+00  0.4000E+01
    -13.488  0.8053E-12  0.4000E+01
    -13.394  0.1572E-04  0.4000E+01
    -13.300  0.3347E+00  0.4032E+01
    -13.205  0.1445E+02  0.5392E+01
    -13.111  0.6441E+01  0.5999E+01
    -13.017  0.1584E-01  0.6000E+01
    -12.923  0.5552E-07  0.6000E+01
    -12.829  0.0000E+00  0.6000E+01
    -12.735  0.0000E+00  0.6000E+01
    -12.640  0.0000E+00  0.6000E+01
    -12.546  0.0000E+00  0.6000E+01
    -12.452  0.0000E+00  0.6000E+01
    -12.358  0.0000E+00  0.6000E+01
    -12.264  0.0000E+00  0.6000E+01
    -12.170  0.0000E+00  0.6000E+01
    -12.075  0.2591E-11  0.6000E+01
    -11.981  0.3378E-04  0.6000E+01
    -11.887  0.4885E+00  0.6046E+01
    -11.793  0.1540E+02  0.7496E+01
    -11.699  0.5344E+01  0.7999E+01
    -11.605  0.9175E-02  0.8000E+01
    -11.510  0.2163E-07  0.8000E+01
    -11.416  0.0000E+00  0.8000E+01
    -11.322  0.0000E+00  0.8000E+01
    -11.228  0.0000E+00  0.8000E+01
    -11.134  0.0000E+00  0.8000E+01
    -11.040  0.0000E+00  0.8000E+01
    -10.945  0.0000E+00  0.8000E+01
    -10.851  0.0000E+00  0.8000E+01
    -10.757  0.0000E+00  0.8000E+01
    -10.663  0.0000E+00  0.8000E+01
    -10.569  0.0000E+00  0.8000E+01
    -10.475  0.0000E+00  0.8000E+01
    -10.380  0.7074E-14  0.8000E+01
    -10.286  0.6243E-06  0.8000E+01
    -10.192  0.6156E-01  0.8006E+01
    -10.098  0.9749E+01  0.8924E+01
    -10.004  0.1132E+02  0.9990E+01
     -9.910  0.1087E+00  0.1000E+02
     -9.815  0.1789E-05  0.1000E+02
     -9.721  0.3065E-13  0.1000E+02
     -9.627  0.0000E+00  0.1000E+02
     -9.533  0.0000E+00  0.1000E+02
     -9.439  0.0000E+00  0.1000E+02
     -9.345  0.0000E+00  0.1000E+02
     -9.250  0.0000E+00  0.1000E+02
     -9.156  0.0000E+00  0.1000E+02
     -9.062  0.0000E+00  0.1000E+02
     -8.968  0.0000E+00  0.1000E+02
     -8.874  0.1179E-14  0.1000E+02
     -8.780  0.1849E-06  0.1000E+02
     -8.686  0.3137E-01  0.1000E+02
     -8.591  0.8010E+01  0.1076E+02
     -8.497  0.1300E+02  0.1198E+02
     -8.403  0.1971E+00  0.1200E+02
     -8.309  0.5553E-05  0.1200E+02
     -8.215  0.1674E-12  0.1200E+02
     -8.121  0.0000E+00  0.1200E+02
     -8.026  0.4625E-11  0.1200E+02
     -7.932  0.4923E-04  0.1200E+02
     -7.838  0.5863E+00  0.1206E+02
     -7.744  0.1582E+02  0.1354E+02
     -7.650  0.4831E+01  0.1400E+02
     -7.556  0.6909E-02  0.1400E+02
     -7.461  0.1333E-07  0.1400E+02
     -7.367  0.0000E+00  0.1400E+02
     -7.273  0.0000E+00  0.1400E+02
     -7.179  0.0000E+00  0.1400E+02
     -7.085  0.0000E+00  0.1400E+02
     -6.991  0.0000E+00  0.1400E+02
     -6.896  0.0000E+00  0.1400E+02
     -6.802  0.0000E+00  0.1400E+02
     -6.708  0.0000E+00  0.1400E+02
     -6.614  0.4362E-12  0.1400E+02
     -6.520  0.1049E-04  0.1400E+02
     -6.426  0.2730E+00  0.1403E+02
     -6.331  0.1390E+02  0.1533E+02
     -6.237  0.7043E+01  0.1600E+02
     -6.143  0.2082E-01  0.1600E+02
     -6.049  0.8954E-07  0.1600E+02
     -5.955  0.0000E+00  0.1600E+02
     -5.861  0.0000E+00  0.1600E+02
     -5.766  0.0000E+00  0.1600E+02
     -5.672  0.0000E+00  0.1600E+02
     -5.578  0.0000E+00  0.1600E+02
     -5.484  0.0000E+00  0.1600E+02
     -5.390  0.0000E+00  0.1600E+02
     -5.296  0.0000E+00  0.1600E+02
     -5.201  0.0000E+00  0.1600E+02
     -5.107  0.0000E+00  0.1600E+02
     -5.013  0.0000E+00  0.1600E+02
     -4.919  0.0000E+00  0.1600E+02
     -4.825  0.0000E+00  0.1600E+02
     -4.731  0.0000E+00  0.1600E+02
     -4.636  0.0000E+00  0.1600E+02
     -4.542  0.0000E+00  0.1600E+02
     -4.448  0.0000E+00  0.1600E+02
     -4.354  0.0000E+00  0.1600E+02
     -4.260  0.0000E+00  0.1600E+02
     -4.166  0.0000E+00  0.1600E+02
     -4.071  0.0000E+00  0.1600E+02
     -3.977  0.0000E+00  0.1600E+02
     -3.883  0.0000E+00  0.1600E+02
     -3.789  0.0000E+00  0.1600E+02
     -3.695  0.0000E+00  0.1600E+02
     -3.601  0.0000E+00  0.1600E+02
     -3.506  0.0000E+00  0.1600E+02
     -3.412  0.0000E+00  0.1600E+02
     -3.318  0.0000E+00  0.1600E+02
     -3.224  0.0000E+00  0.1600E+02
     -3.130  0.0000E+00  0.1600E+02
     -3.036  0.0000E+00  0.1600E+02
     -2.941  0.0000E+00  0.1600E+02
     -2.847  0.0000E+00  0.1600E+02
     -2.753  0.0000E+00  0.1600E+02
     -2.659  0.0000E+00  0.1600E+02
     -2.565  0.0000E+00  0.1600E+02
     -2.471  0.0000E+00  0.1600E+02
     -2.376  0.0000E+00  0.1600E+02
     -2.282  0.0000E+00  0.1600E+02
     -2.188  0.0000E+00  0.1600E+02
     -2.094  0.0000E+00  0.1600E+02
     -2.000  0.0000E+00  0.1600E+02
     -1.906  0.0000E+00  0.1600E+02
     -1.811  0.0000E+00  0.1600E+02
     -1.717  0.1030E-06  0.1600E+02
     -1.623  0.2254E-01  0.1600E+02
     -1.529  0.7225E+01  0.1668E+02
     -1.435  0.1374E+02  0.1798E+02
     -1.341  0.2568E+00  0.1800E+02
     -1.246  0.9302E-05  0.1800E+02
     -1.152  0.3631E-12  0.1800E+02
     -1.058  0.0000E+00  0.1800E+02
     -0.964  0.0000E+00  0.1800E+02
     -0.870  0.0000E+00  0.1800E+02
     -0.776  0.0000E+00  0.1800E+02
     -0.681  0.0000E+00  0.1800E+02
     -0.587  0.0000E+00  0.1800E+02
     -0.493  0.4168E-12  0.1800E+02
     -0.399  0.1017E-04  0.1800E+02
     -0.305  0.2687E+00  0.1803E+02
     -0.211  0.1386E+02  0.1933E+02
     -0.116  0.7091E+01  0.2000E+02
     -0.022  0.1746E+01  0.2016E+02
      0.072  0.1734E+02  0.2179E+02
      0.166  0.5749E+01  0.2234E+02
      0.260  0.1673E+02  0.2391E+02
      0.354  0.9425E+00  0.2400E+02
      0.449  0.1348E-03  0.2400E+02
      0.543  0.2215E-10  0.2400E+02
      0.637  0.0000E+00  0.2400E+02
      0.731  0.0000E+00  0.2400E+02
      0.825  0.0000E+00  0.2400E+02
      0.919  0.0000E+00  0.2400E+02
      1.014  0.0000E+00  0.2400E+02
      1.108  0.0000E+00  0.2400E+02
      1.202  0.0000E+00  0.2400E+02
      1.296  0.0000E+00  0.2400E+02
      1.390  0.0000E+00  0.2400E+02
      1.484  0.0000E+00  0.2400E+02
