    6    6    1    1
  0.5000000E+03  0.3000000E-08  0.1000000E-08  0.1000000E-08  0.5000000E-15
  1.000000000000000E-004
  CAR 
 unknown system                          
     16      2     12
 
  0.0000000E+00  0.2500000E+00  0.2500000E+00  0.5000000E+00
    1      -25.481208   1.000000
    2      -23.924578   1.000000
    3      -13.223585   1.000000
    4      -11.816587   1.000000
    5      -10.094606   1.000000
    6       -8.580412   1.000000
    7       -7.770232   1.000000
    8       -6.346669   1.000000
    9       -1.514462   0.000000
   10       -0.225593   0.000000
   11        0.026682   0.000000
   12        0.200294   0.000000
 
  0.0000000E+00 -0.2500000E+00  0.2500000E+00  0.5000000E+00
    1      -25.481208   1.000000
    2      -23.924578   1.000000
    3      -13.223585   1.000000
    4      -11.816586   1.000000
    5      -10.094606   1.000000
    6       -8.580412   1.000000
    7       -7.770232   1.000000
    8       -6.346669   1.000000
    9       -1.514460   0.000000
   10       -0.225795   0.000000
   11        0.027537   0.000000
   12        0.199792   0.000000
