       N       E                     dE             d eps       ncg     rms          rms(c)
DAV:   1     0.136543498356E+03    0.13654E+03   -0.49027E+03    72   0.142E+03
DAV:   2     0.340431440160E+02   -0.10250E+03   -0.10168E+03    96   0.158E+02
DAV:   3    -0.259155493155E+02   -0.59959E+02   -0.59498E+02    80   0.139E+02
DAV:   4    -0.319005668832E+02   -0.59850E+01   -0.59796E+01    64   0.528E+01
DAV:   5    -0.320489843785E+02   -0.14842E+00   -0.14841E+00    72   0.104E+01    0.180E+01
RMM:   6    -0.288409313727E+02    0.32081E+01   -0.12833E+01    64   0.253E+01    0.176E+01
RMM:   7    -0.287900340337E+02    0.50897E-01   -0.11848E+00    76   0.541E+00    0.155E+01
RMM:   8    -0.295507585711E+02   -0.76072E+00   -0.65210E+00    64   0.214E+01    0.118E+01
RMM:   9    -0.285610044861E+02    0.98975E+00   -0.22905E+00    64   0.112E+01    0.416E+00
RMM:  10    -0.285630395090E+02   -0.20350E-02   -0.21131E-01    76   0.268E+00    0.185E+00
RMM:  11    -0.285537038358E+02    0.93357E-02   -0.16456E-02    66   0.711E-01    0.106E+00
RMM:  12    -0.285470281450E+02    0.66757E-02   -0.80114E-02    60   0.167E+00    0.870E-01
RMM:  13    -0.285495890855E+02   -0.25609E-02   -0.10136E-02    74   0.501E-01    0.816E-01
RMM:  14    -0.285518483533E+02   -0.22593E-02   -0.98009E-04    64   0.183E-01    0.807E-01
RMM:  15    -0.285538943763E+02   -0.20460E-02   -0.88652E-03    60   0.702E-01    0.139E-01
RMM:  16    -0.285543832026E+02   -0.48883E-03   -0.23035E-03    74   0.311E-01    0.160E-01
RMM:  17    -0.285560849752E+02   -0.17018E-02   -0.10915E-03    58   0.223E-01    0.325E-01
RMM:  18    -0.285573030998E+02   -0.12181E-02   -0.16506E-03    62   0.239E-01    0.258E-01
RMM:  19    -0.285568842697E+02    0.41883E-03   -0.29694E-03    66   0.342E-01    0.798E-02
RMM:  20    -0.285566665630E+02    0.21771E-03   -0.11529E-03    66   0.207E-01    0.927E-02
RMM:  21    -0.285559246079E+02    0.74196E-03   -0.34081E-04    70   0.971E-02    0.156E-01
RMM:  22    -0.285558330640E+02    0.91544E-04   -0.14095E-04    62   0.688E-02    0.245E-01
RMM:  23    -0.285555661028E+02    0.26696E-03   -0.92824E-04    66   0.200E-01    0.537E-02
RMM:  24    -0.285557741172E+02   -0.20801E-03   -0.58290E-04    56   0.122E-01    0.148E-01
RMM:  25    -0.285559138140E+02   -0.13970E-03   -0.18348E-04    66   0.757E-02    0.161E-01
RMM:  26    -0.285568426981E+02   -0.92888E-03   -0.47914E-04    56   0.137E-01    0.379E-02
RMM:  27    -0.285575323971E+02   -0.68970E-03   -0.33944E-04    70   0.101E-01    0.838E-02
RMM:  28    -0.285580459055E+02   -0.51351E-03   -0.74191E-05    64   0.489E-02    0.695E-02
RMM:  29    -0.285582873583E+02   -0.24145E-03   -0.56015E-05    64   0.499E-02    0.218E-02
RMM:  30    -0.285585176212E+02   -0.23026E-03   -0.16404E-05    70   0.217E-02    0.615E-03
RMM:  31    -0.285586440627E+02   -0.12644E-03   -0.57675E-06    62   0.129E-02    0.350E-03
RMM:  32    -0.285586819690E+02   -0.37906E-04   -0.23032E-06    68   0.844E-03    0.760E-03
RMM:  33    -0.285587087590E+02   -0.26790E-04   -0.52968E-07    62   0.346E-03    0.161E-03
RMM:  34    -0.285587149859E+02   -0.62269E-05   -0.10374E-07    61   0.162E-03    0.140E-03
RMM:  35    -0.285587217020E+02   -0.67161E-05   -0.17803E-07    60   0.222E-03    0.122E-03
RMM:  36    -0.285587232138E+02   -0.15117E-05   -0.67533E-08    58   0.129E-03    0.175E-04
RMM:  37    -0.285587244308E+02   -0.12170E-05   -0.28756E-08    48   0.853E-04    0.444E-04
RMM:  38    -0.285587246676E+02   -0.23678E-06   -0.17923E-08    44   0.686E-04    0.402E-04
RMM:  39    -0.285587248485E+02   -0.18093E-06   -0.75168E-09    48   0.483E-04    0.240E-04
RMM:  40    -0.285587250591E+02   -0.21055E-06   -0.10014E-08    44   0.568E-04    0.136E-04
RMM:  41    -0.285587251707E+02   -0.11162E-06   -0.16710E-08    42   0.702E-04    0.281E-04
RMM:  42    -0.285587252157E+02   -0.45077E-07   -0.76021E-09    44   0.542E-04    0.449E-04
RMM:  43    -0.285587253365E+02   -0.12071E-06   -0.38595E-09    40   0.373E-04    0.567E-04
RMM:  44    -0.285587256471E+02   -0.31060E-06   -0.52709E-09    44   0.461E-04    0.320E-04
RMM:  45    -0.285587257997E+02   -0.15263E-06   -0.49850E-09    48   0.472E-04    0.108E-04
RMM:  46    -0.285587259112E+02   -0.11156E-06   -0.43569E-09    46   0.426E-04    0.187E-04
RMM:  47    -0.285587259818E+02   -0.70599E-07   -0.17560E-09    42   0.250E-04    0.210E-04
RMM:  48    -0.285587260351E+02   -0.53266E-07   -0.86683E-10    41   0.222E-04    0.154E-04
RMM:  49    -0.285587260451E+02   -0.10009E-07   -0.54759E-10    41   0.195E-04    0.516E-05
RMM:  50    -0.285587260526E+02   -0.74679E-08   -0.46365E-10    38   0.197E-04
   1 F= -.28558726E+02 E0= -.28558726E+02  d E =-.268855E-17
