<?xml version="1.0" encoding="ISO-8859-1"?>
<modeling>
 <generator>
  <i name="program" type="string">vasp </i>
  <i name="version" type="string">5.4.4.18Apr17-6-g9f103f2a35  </i>
  <i name="subversion" type="string">(build Nov 25 2019 16:34:31) complex            parallel </i>
  <i name="platform" type="string">LinuxIFC </i>
  <i name="date" type="string">2021 04 06 </i>
  <i name="time" type="string">12:18:04 </i>
 </generator>
 <incar>
  <i type="string" name="PREC">a</i>
  <i type="string" name="ALGO">fast</i>
  <i name="AMIN">      0.00500000</i>
  <i type="int" name="NELM">   300</i>
  <i type="int" name="NELMIN">     4</i>
  <i type="int" name="IBRION">    -1</i>
  <i name="EDIFF">      0.00000001</i>
  <i type="int" name="NSW">     0</i>
  <i type="int" name="ISIF">     2</i>
  <i name="ENCUT">   1500.00000000</i>
  <i type="logical" name="LREAL"> F  </i>
  <i type="int" name="ISMEAR">     0</i>
  <i name="SIGMA">      0.05000000</i>
  <i name="KSPACING">      0.50000000</i>
  <i type="logical" name="KGAMMA"> F  </i>
  <i name="PSTRESS">      0.00000000</i>
  <i type="logical" name="LWAVE"> F  </i>
  <i type="logical" name="LCHARG"> F  </i>
  <v type="int" name="KPOINT_BSE">    -1     0     0     0</v>
  <i type="int" name="NELM">   300</i>
 </incar>
 <structure name="primitive_cell" >
  <crystal>
   <varray name="basis" >
    <v>      30.00000000       0.00000000       0.00000000 </v>
    <v>       0.00000000      10.00000000       0.00000000 </v>
    <v>       0.00000000       0.00000000      10.00000000 </v>
   </varray>
   <i name="volume">   3000.00000000 </i>
   <varray name="rec_basis" >
    <v>       0.03333333       0.00000000       0.00000000 </v>
    <v>       0.00000000       0.10000000       0.00000000 </v>
    <v>       0.00000000       0.00000000       0.10000000 </v>
   </varray>
  </crystal>
  <varray name="positions" >
   <v>       0.05453563       0.15710957       0.17600000 </v>
   <v>       0.02113922       0.16672783       0.17649328 </v>
   <v>       0.06521080       0.25541218       0.17439231 </v>
   <v>      -0.04486896       0.15710957       0.17600000 </v>
   <v>      -0.05375150       0.09907990       0.09607226 </v>
   <v>      -0.05387697       0.09941802       0.25610440 </v>
  </varray>
 </structure>
 <varray name="primitive_index" >
  <v type="int" >        1 </v>
  <v type="int" >        4 </v>
  <v type="int" >        3 </v>
  <v type="int" >        2 </v>
  <v type="int" >        6 </v>
  <v type="int" >        5 </v>
 </varray>
 <kpoints>
  <generation param="Monkhorst-Pack">
   <v type="int" name="divisions">       1        2        2 </v>
   <v name="usershift">      0.00000000       0.00000000       0.00000000 </v>
   <v name="genvec1">      1.00000000       0.00000000       0.00000000 </v>
   <v name="genvec2">      0.00000000       0.50000000       0.00000000 </v>
   <v name="genvec3">      0.00000000       0.00000000       0.50000000 </v>
   <v name="shift">      0.00000000       0.50000000       0.50000000 </v>
  </generation>
  <varray name="kpointlist" >
   <v>       0.00000000       0.25000000       0.25000000 </v>
   <v>       0.00000000      -0.25000000       0.25000000 </v>
  </varray>
  <varray name="weights" >
   <v>       0.50000000 </v>
   <v>       0.50000000 </v>
  </varray>
 </kpoints>
 <parameters>
  <separator name="general" >
   <i type="string" name="SYSTEM">unknown system</i>
   <i type="logical" name="LCOMPAT"> F  </i>
  </separator>
  <separator name="electronic" >
   <i type="string" name="PREC">a</i>
   <i name="ENMAX">   1500.00000000</i>
   <i name="ENAUG">   1000.00000000</i>
   <i name="EDIFF">      0.00000001</i>
   <i type="int" name="IALGO">    68</i>
   <i type="int" name="IWAVPR">    10</i>
   <i type="int" name="NBANDS">    12</i>
   <i name="NELECT">     16.00000000</i>
   <i type="int" name="TURBO">     0</i>
   <i type="int" name="IRESTART">     0</i>
   <i type="int" name="NREBOOT">     0</i>
   <i type="int" name="NMIN">     0</i>
   <i name="EREF">      0.00000000</i>
   <separator name="electronic smearing" >
    <i type="int" name="ISMEAR">     0</i>
    <i name="SIGMA">      0.05000000</i>
    <i name="KSPACING">      0.50000000</i>
    <i type="logical" name="KGAMMA"> F  </i>
   </separator>
   <separator name="electronic projectors" >
    <i type="logical" name="LREAL"> F  </i>
    <v name="ROPT">      0.00000000      0.00000000</v>
    <i type="int" name="LMAXPAW">  -100</i>
    <i type="int" name="LMAXMIX">     2</i>
    <i type="logical" name="NLSPLINE"> F  </i>
   </separator>
   <separator name="electronic startup" >
    <i type="int" name="ISTART">     0</i>
    <i type="int" name="ICHARG">     2</i>
    <i type="int" name="INIWAV">     1</i>
   </separator>
   <separator name="electronic spin" >
    <i type="int" name="ISPIN">     1</i>
    <i type="logical" name="LNONCOLLINEAR"> F  </i>
    <v name="MAGMOM">      1.00000000      1.00000000      1.00000000      1.00000000      1.00000000      1.00000000</v>
    <i name="NUPDOWN">     -1.00000000</i>
    <i type="logical" name="LSORBIT"> F  </i>
    <v name="SAXIS">      0.00000000      0.00000000      1.00000000</v>
    <i type="logical" name="LSPIRAL"> F  </i>
    <v name="QSPIRAL">      0.00000000      0.00000000      0.00000000</v>
    <i type="logical" name="LZEROZ"> F  </i>
   </separator>
   <separator name="electronic exchange-correlation" >
    <i type="logical" name="LASPH"> F  </i>
    <i type="logical" name="LMETAGGA"> F  </i>
   </separator>
   <separator name="electronic convergence" >
    <i type="int" name="NELM">   300</i>
    <i type="int" name="NELMDL">     0</i>
    <i type="int" name="NELMIN">     4</i>
    <i name="ENINI">   1500.00000000</i>
    <separator name="electronic convergence detail" >
     <i type="logical" name="LDIAG"> T  </i>
     <i type="logical" name="LSUBROT"> F  </i>
     <i name="WEIMIN">      0.00000000</i>
     <i name="EBREAK">      0.00000000</i>
     <i name="DEPER">      0.30000000</i>
     <i type="int" name="NRMM">     4</i>
     <i name="TIME">      0.40000000</i>
    </separator>
   </separator>
   <separator name="electronic mixer" >
    <i name="AMIX">      0.40000000</i>
    <i name="BMIX">      1.00000000</i>
    <i name="AMIN">      0.00500000</i>
    <i name="AMIX_MAG">      1.60000000</i>
    <i name="BMIX_MAG">      1.00000000</i>
    <separator name="electronic mixer details" >
     <i type="int" name="IMIX">     4</i>
     <i type="logical" name="MIXFIRST"> F  </i>
     <i type="int" name="MAXMIX">   -45</i>
     <i name="WC">    100.00000000</i>
     <i type="int" name="INIMIX">     1</i>
     <i type="int" name="MIXPRE">     1</i>
     <i type="int" name="MREMOVE">     5</i>
    </separator>
   </separator>
   <separator name="electronic dipolcorrection" >
    <i type="logical" name="LDIPOL"> F  </i>
    <i type="logical" name="LMONO"> F  </i>
    <i type="int" name="IDIPOL">     0</i>
    <i name="EPSILON">      1.00000000</i>
    <v name="DIPOL">   -100.00000000   -100.00000000   -100.00000000</v>
    <i name="EFIELD">      0.00000000</i>
   </separator>
  </separator>
  <separator name="grids" >
   <i type="int" name="NGX">   384</i>
   <i type="int" name="NGY">   126</i>
   <i type="int" name="NGZ">   126</i>
   <i type="int" name="NGXF">   768</i>
   <i type="int" name="NGYF">   252</i>
   <i type="int" name="NGZF">   252</i>
   <i type="logical" name="ADDGRID"> F  </i>
  </separator>
  <separator name="ionic" >
   <i type="int" name="NSW">     0</i>
   <i type="int" name="IBRION">    -1</i>
   <i type="int" name="MDALGO">     0</i>
   <i type="int" name="ISIF">     2</i>
   <i name="PSTRESS">      0.00000000</i>
   <i name="EDIFFG">      0.00000010</i>
   <i type="int" name="NFREE">     0</i>
   <i name="POTIM">      0.50000000</i>
   <i name="SMASS">     -3.00000000</i>
   <i name="SCALEE">      1.00000000</i>
  </separator>
  <separator name="ionic md" >
   <i name="TEBEG">      0.00010000</i>
   <i name="TEEND">      0.00010000</i>
   <i type="int" name="NBLOCK">     1</i>
   <i type="int" name="KBLOCK">     1</i>
   <i type="int" name="NPACO">   256</i>
   <i name="APACO">     16.00000000</i>
  </separator>
  <separator name="symmetry" >
   <i type="int" name="ISYM">     2</i>
   <i name="SYMPREC">      0.00001000</i>
  </separator>
  <separator name="dos" >
   <i type="int" name="LORBIT">     0</i>
   <v name="RWIGS">     -1.00000000     -1.00000000</v>
   <i type="int" name="NEDOS">   301</i>
   <i name="EMIN">     10.00000000</i>
   <i name="EMAX">    -10.00000000</i>
   <i name="EFERMI">      0.00000000</i>
  </separator>
  <separator name="writing" >
   <i type="int" name="NWRITE">     2</i>
   <i type="logical" name="LWAVE"> F  </i>
   <i type="logical" name="LDOWNSAMPLE"> F  </i>
   <i type="logical" name="LCHARG"> F  </i>
   <i type="logical" name="LPARD"> F  </i>
   <i type="logical" name="LVTOT"> F  </i>
   <i type="logical" name="LVHAR"> F  </i>
   <i type="logical" name="LELF"> F  </i>
   <i type="logical" name="LOPTICS"> F  </i>
   <v name="STM">      0.00000000      0.00000000      0.00000000      0.00000000      0.00000000      0.00000000      0.00000000</v>
  </separator>
  <separator name="performance" >
   <i type="int" name="NPAR">     2</i>
   <i type="int" name="NSIM">     4</i>
   <i type="int" name="NBLK">    -1</i>
   <i type="logical" name="LPLANE"> T  </i>
   <i type="logical" name="LSCALAPACK"> T  </i>
   <i type="logical" name="LSCAAWARE"> F  </i>
   <i type="logical" name="LSCALU"> F  </i>
   <i type="logical" name="LASYNC"> F  </i>
   <i type="logical" name="LORBITALREAL"> F  </i>
  </separator>
  <separator name="miscellaneous" >
   <i type="int" name="IDIOT">     3</i>
   <i type="int" name="ISPECIAL">     0</i>
   <i type="logical" name="LMUSIC"> F  </i>
   <v name="POMASS">     16.00000000      1.00000000</v>
   <v name="DARWINR">      0.00000000      0.00000000</v>
   <v name="DARWINV">      1.00000000      1.00000000</v>
   <i type="logical" name="LCORR"> T  </i>
  </separator>
  <i type="logical" name="GGA_COMPAT"> T  </i>
  <i type="logical" name="LBERRY"> F  </i>
  <i type="int" name="ICORELEVEL">     0</i>
  <i type="logical" name="LDAU"> F  </i>
  <i type="int" name="I_CONSTRAINED_M">     0</i>
  <separator name="electronic exchange-correlation" >
   <i type="string" name="GGA">--</i>
   <i type="int" name="VOSKOWN">     0</i>
   <i type="logical" name="LHFCALC"> F  </i>
   <i type="string" name="PRECFOCK"></i>
   <i type="logical" name="LSYMGRAD"> F  </i>
   <i type="logical" name="LHFONE"> F  </i>
   <i type="logical" name="LRHFCALC"> F  </i>
   <i type="logical" name="LTHOMAS"> F  </i>
   <i type="logical" name="LMODELHF"> F  </i>
   <i name="ENCUT4O">     -1.00000000</i>
   <i type="int" name="EXXOEP">     0</i>
   <i type="int" name="FOURORBIT">     0</i>
   <i name="AEXX">      0.00000000</i>
   <i name="HFALPHA">      0.00000000</i>
   <i name="MCALPHA">      0.00000000</i>
   <i name="ALDAX">      1.00000000</i>
   <i name="AGGAX">      1.00000000</i>
   <i name="ALDAC">      1.00000000</i>
   <i name="AGGAC">      1.00000000</i>
   <i type="int" name="NKREDX">     1</i>
   <i type="int" name="NKREDY">     1</i>
   <i type="int" name="NKREDZ">     1</i>
   <i type="logical" name="SHIFTRED"> F  </i>
   <i type="logical" name="ODDONLY"> F  </i>
   <i type="logical" name="EVENONLY"> F  </i>
   <i type="int" name="LMAXFOCK">     0</i>
   <i type="int" name="NMAXFOCKAE">     0</i>
   <i type="logical" name="LFOCKAEDFT"> F  </i>
   <i name="HFSCREEN">      0.00000000</i>
   <i name="HFSCREENC">      0.00000000</i>
   <i type="int" name="NBANDSGWLOW">     0</i>
  </separator>
  <separator name="vdW DFT" >
   <i type="logical" name="LUSE_VDW"> F  </i>
   <i name="Zab_VDW">     -0.84910000</i>
   <i name="PARAM1">      0.12340000</i>
   <i name="PARAM2">      1.00000000</i>
   <i name="PARAM3">      0.00000000</i>
  </separator>
  <separator name="model GW" >
   <i type="int" name="MODEL_GW">     0</i>
   <i name="MODEL_EPS0">    300.00000000</i>
   <i name="MODEL_ALPHA">      1.00000000</i>
  </separator>
  <separator name="linear response parameters" >
   <i type="logical" name="LEPSILON"> F  </i>
   <i type="logical" name="LRPA"> F  </i>
   <i type="logical" name="LNABLA"> F  </i>
   <i type="logical" name="LVEL"> F  </i>
   <i type="int" name="KINTER">     0</i>
   <i name="CSHIFT">      0.10000000</i>
   <i name="OMEGAMAX">     -1.00000000</i>
   <i name="DEG_THRESHOLD">      0.00200000</i>
   <i name="RTIME">     -0.10000000</i>
   <i name="WPLASMAI">      0.00000000</i>
   <v name="DFIELD">      0.00000000      0.00000000      0.00000000</v>
   <v name="WPLASMA">      0.00000000      0.00000000      0.00000000      0.00000000      0.00000000      0.00000000      0.00000000      0.00000000      0.00000000</v>
  </separator>
  <separator name="orbital magnetization" >
   <i type="logical" name="NUCIND"> F  </i>
   <v name="MAGPOS">      0.00000000      0.00000000      0.00000000</v>
   <i type="logical" name="LNICSALL"> T  </i>
   <i type="logical" name="ORBITALMAG"> F  </i>
   <i type="logical" name="LMAGBLOCH"> F  </i>
   <i type="logical" name="LCHIMAG"> F  </i>
   <i type="logical" name="LGAUGE"> T  </i>
   <i type="int" name="MAGATOM">     0</i>
   <v name="MAGDIPOL">      0.00000000      0.00000000      0.00000000</v>
   <v name="AVECCONST">      0.00000000      0.00000000      0.00000000</v>
  </separator>
  <separator name="response functions" >
   <i type="logical" name="LADDER"> F  </i>
   <i type="logical" name="LRPAFORCE"> F  </i>
   <i type="logical" name="LFXC"> F  </i>
   <i type="logical" name="LHARTREE"> T  </i>
   <i type="int" name="IBSE">     0</i>
   <v type="int" name="KPOINT">    -1     0     0     0</v>
   <i type="logical" name="LTCTE"> F  </i>
   <i type="logical" name="LTETE"> F  </i>
   <i type="logical" name="LTRIPLET"> F  </i>
   <i type="logical" name="LFXCEPS"> F  </i>
   <i type="logical" name="LFXHEG"> F  </i>
   <i type="int" name="NATURALO">     2</i>
   <i type="logical" name="L2ORDER"> F  </i>
   <i type="logical" name="LMP2LT"> F  </i>
   <i type="logical" name="LUSEW"> F  </i>
   <i name="ENCUTGW">     -2.00000000</i>
   <i name="ENCUTGWSOFT">     -2.00000000</i>
   <i name="ENCUTLF">     -1.00000000</i>
   <i type="int" name="LMAXMP2">    -1</i>
   <i name="SCISSOR">      0.00000000</i>
   <i type="int" name="NOMEGA">     0</i>
   <i type="int" name="NOMEGAR">     0</i>
   <i type="int" name="NBANDSGW">    -1</i>
   <i type="int" name="NBANDSO">    -1</i>
   <i type="int" name="NBANDSV">    -1</i>
   <i type="int" name="NELM">   300</i>
   <i type="int" name="NELMHF">     1</i>
   <i type="int" name="DIM">     3</i>
   <i type="int" name="ANTIRES">     0</i>
   <i name="OMEGAMAX">    -30.00000000</i>
   <i name="OMEGAMIN">    -30.00000000</i>
   <i name="OMEGATL">   -200.00000000</i>
   <i type="int" name="OMEGAGRID">   140</i>
   <i name="CSHIFT">     -0.10000000</i>
   <i type="logical" name="SELFENERGY"> F  </i>
   <i type="logical" name="LSPECTRAL"> F  </i>
   <i type="logical" name="LSPECTRALGW"> F  </i>
   <i type="logical" name="LSINGLES"> F  </i>
   <i type="logical" name="LFERMIGW"> F  </i>
   <i type="logical" name="ODDONLYGW"> F  </i>
   <i type="logical" name="EVENONLYGW"> F  </i>
   <i type="int" name="NKREDLFX">     1</i>
   <i type="int" name="NKREDLFY">     1</i>
   <i type="int" name="NKREDLFZ">     1</i>
   <i type="int" name="MAXMEM">  2800</i>
   <i type="int" name="TELESCOPE">     0</i>
   <i type="int" name="TAUPAR">     1</i>
   <i type="int" name="OMEGAPAR">    -1</i>
   <i name="LAMBDA">      1.00000000</i>
  </separator>
  <separator name="External order field" >
   <i name="OFIELD_KAPPA">      0.00000000</i>
   <v name="OFIELD_K">      0.00000000      0.00000000      0.00000000</v>
   <i name="OFIELD_Q6_NEAR">      0.00000000</i>
   <i name="OFIELD_Q6_FAR">      0.00000000</i>
   <i name="OFIELD_A">      0.00000000</i>
  </separator>
 </parameters>
 <atominfo>
  <atoms>       6 </atoms>
  <types>       2 </types>
  <array name="atoms" >
   <dimension dim="1">ion</dimension>
   <field type="string">element</field>
   <field type="int">atomtype</field>
   <set>
    <rc><c>O </c><c>   1</c></rc>
    <rc><c>O </c><c>   1</c></rc>
    <rc><c>H </c><c>   2</c></rc>
    <rc><c>H </c><c>   2</c></rc>
    <rc><c>H </c><c>   2</c></rc>
    <rc><c>H </c><c>   2</c></rc>
   </set>
  </array>
  <array name="atomtypes" >
   <dimension dim="1">type</dimension>
   <field type="int">atomspertype</field>
   <field type="string">element</field>
   <field>mass</field>
   <field>valence</field>
   <field type="string">pseudopotential</field>
   <set>
    <rc><c>   2</c><c>O </c><c>     16.00000000</c><c>      6.00000000</c><c>  PAW_PBE O_h 06Feb2004                 </c></rc>
    <rc><c>   4</c><c>H </c><c>      1.00000000</c><c>      1.00000000</c><c>  PAW_PBE H_h 06Feb2004                 </c></rc>
   </set>
  </array>
 </atominfo>
 <structure name="initialpos" >
  <crystal>
   <varray name="basis" >
    <v>      30.00000000       0.00000000       0.00000000 </v>
    <v>       0.00000000      10.00000000       0.00000000 </v>
    <v>       0.00000000       0.00000000      10.00000000 </v>
   </varray>
   <i name="volume">   3000.00000000 </i>
   <varray name="rec_basis" >
    <v>       0.03333333       0.00000000       0.00000000 </v>
    <v>       0.00000000       0.10000000       0.00000000 </v>
    <v>       0.00000000       0.00000000       0.10000000 </v>
   </varray>
  </crystal>
  <varray name="positions" >
   <v>       0.05453563       0.15710957       0.17600000 </v>
   <v>       0.95513104       0.15710957       0.17600000 </v>
   <v>       0.06521080       0.25541218       0.17439231 </v>
   <v>       0.02113922       0.16672783       0.17649328 </v>
   <v>       0.94612303       0.09941802       0.25610440 </v>
   <v>       0.94624850       0.09907990       0.09607226 </v>
  </varray>
 </structure>
 <calculation>
  <scstep>
   <time name="dav">    3.55    3.56</time>
   <time name="total">    6.26    6.29</time>
   <energy>
    <i name="alphaZ">      0.21758540 </i>
    <i name="ewald">    511.13025911 </i>
    <i name="hartreedc">  -1236.35876030 </i>
    <i name="XCdc">     60.78757280 </i>
    <i name="pawpsdc">    697.41634940 </i>
    <i name="pawaedc">   -699.85762974 </i>
    <i name="eentropy">     -0.00000000 </i>
    <i name="bandstr">   -111.49554700 </i>
    <i name="atom">    914.70366869 </i>
    <i name="e_fr_energy">    136.54349836 </i>
    <i name="e_wo_entrp">    136.54349836 </i>
    <i name="e_0_energy">    136.54349836 </i>
   </energy>
  </scstep>
  <scstep>
   <time name="dav">    4.41    4.44</time>
   <time name="total">    4.41    4.44</time>
   <energy>
    <i name="e_fr_energy">     34.04314402 </i>
    <i name="e_wo_entrp">     34.04314402 </i>
    <i name="e_0_energy">     34.04314402 </i>
   </energy>
  </scstep>
  <scstep>
   <time name="dav">    3.80    3.81</time>
   <time name="total">    3.80    3.81</time>
   <energy>
    <i name="e_fr_energy">    -25.91554932 </i>
    <i name="e_wo_entrp">    -25.91554932 </i>
    <i name="e_0_energy">    -25.91554932 </i>
   </energy>
  </scstep>
  <scstep>
   <time name="dav">    3.22    3.22</time>
   <time name="total">    3.22    3.22</time>
   <energy>
    <i name="e_fr_energy">    -31.90056688 </i>
    <i name="e_wo_entrp">    -31.90056688 </i>
    <i name="e_0_energy">    -31.90056688 </i>
   </energy>
  </scstep>
  <scstep>
   <time name="dav">    3.53    3.53</time>
   <time name="total">    4.06    4.07</time>
   <energy>
    <i name="e_fr_energy">    -32.04898438 </i>
    <i name="e_wo_entrp">    -32.04898438 </i>
    <i name="e_0_energy">    -32.04898438 </i>
   </energy>
  </scstep>
  <scstep>
   <time name="diag">    0.71    0.71</time>
   <time name="diis">    3.68    3.69</time>
   <time name="orth">    0.02    0.02</time>
   <time name="total">    7.65    7.66</time>
   <energy>
    <i name="e_fr_energy">    -28.84093137 </i>
    <i name="e_wo_entrp">    -28.84093137 </i>
    <i name="e_0_energy">    -28.84093137 </i>
   </energy>
  </scstep>
  <scstep>
   <time name="diag">    0.67    0.67</time>
   <time name="diis">    4.29    4.30</time>
   <time name="orth">    0.02    0.02</time>
   <time name="total">    8.26    8.27</time>
   <energy>
    <i name="e_fr_energy">    -28.79003403 </i>
    <i name="e_wo_entrp">    -28.79003403 </i>
    <i name="e_0_energy">    -28.79003403 </i>
   </energy>
  </scstep>
  <scstep>
   <time name="diag">    0.67    0.67</time>
   <time name="diis">    3.67    3.71</time>
   <time name="orth">    0.02    0.02</time>
   <time name="total">    7.63    7.68</time>
   <energy>
    <i name="e_fr_energy">    -29.55075857 </i>
    <i name="e_wo_entrp">    -29.55075857 </i>
    <i name="e_0_energy">    -29.55075857 </i>
   </energy>
  </scstep>
  <scstep>
   <time name="diag">    0.68    0.68</time>
   <time name="diis">    3.62    3.63</time>
   <time name="orth">    0.02    0.02</time>
   <time name="total">    7.59    7.61</time>
   <energy>
    <i name="e_fr_energy">    -28.56100449 </i>
    <i name="e_wo_entrp">    -28.56100449 </i>
    <i name="e_0_energy">    -28.56100449 </i>
   </energy>
  </scstep>
  <scstep>
   <time name="diag">    0.67    0.67</time>
   <time name="diis">    4.30    4.30</time>
   <time name="orth">    0.05    0.05</time>
   <time name="total">    8.24    8.25</time>
   <energy>
    <i name="e_fr_energy">    -28.56303951 </i>
    <i name="e_wo_entrp">    -28.56303951 </i>
    <i name="e_0_energy">    -28.56303951 </i>
   </energy>
  </scstep>
  <scstep>
   <time name="diag">    0.67    0.67</time>
   <time name="diis">    3.75    3.75</time>
   <time name="orth">    0.02    0.02</time>
   <time name="total">    7.73    7.74</time>
   <energy>
    <i name="e_fr_energy">    -28.55370384 </i>
    <i name="e_wo_entrp">    -28.55370384 </i>
    <i name="e_0_energy">    -28.55370384 </i>
   </energy>
  </scstep>
  <scstep>
   <time name="diag">    0.67    0.67</time>
   <time name="diis">    3.45    3.46</time>
   <time name="orth">    0.02    0.02</time>
   <time name="total">    7.43    7.44</time>
   <energy>
    <i name="e_fr_energy">    -28.54702815 </i>
    <i name="e_wo_entrp">    -28.54702815 </i>
    <i name="e_0_energy">    -28.54702815 </i>
   </energy>
  </scstep>
  <scstep>
   <time name="diag">    0.67    0.67</time>
   <time name="diis">    4.17    4.19</time>
   <time name="orth">    0.02    0.02</time>
   <time name="total">    8.13    8.16</time>
   <energy>
    <i name="e_fr_energy">    -28.54958909 </i>
    <i name="e_wo_entrp">    -28.54958909 </i>
    <i name="e_0_energy">    -28.54958909 </i>
   </energy>
  </scstep>
  <scstep>
   <time name="diag">    0.67    0.67</time>
   <time name="diis">    3.65    3.66</time>
   <time name="orth">    0.02    0.02</time>
   <time name="total">    7.60    7.61</time>
   <energy>
    <i name="e_fr_energy">    -28.55184835 </i>
    <i name="e_wo_entrp">    -28.55184835 </i>
    <i name="e_0_energy">    -28.55184835 </i>
   </energy>
  </scstep>
  <scstep>
   <time name="diag">    0.67    0.67</time>
   <time name="diis">    3.44    3.44</time>
   <time name="orth">    0.02    0.02</time>
   <time name="total">    7.35    7.37</time>
   <energy>
    <i name="e_fr_energy">    -28.55389438 </i>
    <i name="e_wo_entrp">    -28.55389438 </i>
    <i name="e_0_energy">    -28.55389438 </i>
   </energy>
  </scstep>
  <scstep>
   <time name="diag">    0.67    0.67</time>
   <time name="diis">    4.21    4.28</time>
   <time name="orth">    0.02    0.02</time>
   <time name="total">    8.15    8.22</time>
   <energy>
    <i name="e_fr_energy">    -28.55438320 </i>
    <i name="e_wo_entrp">    -28.55438320 </i>
    <i name="e_0_energy">    -28.55438320 </i>
   </energy>
  </scstep>
  <scstep>
   <time name="diag">    0.66    0.66</time>
   <time name="diis">    3.33    3.34</time>
   <time name="orth">    0.02    0.02</time>
   <time name="total">    7.24    7.26</time>
   <energy>
    <i name="e_fr_energy">    -28.55608498 </i>
    <i name="e_wo_entrp">    -28.55608498 </i>
    <i name="e_0_energy">    -28.55608498 </i>
   </energy>
  </scstep>
  <scstep>
   <time name="diag">    0.67    0.67</time>
   <time name="diis">    3.52    3.52</time>
   <time name="orth">    0.02    0.02</time>
   <time name="total">    7.45    7.45</time>
   <energy>
    <i name="e_fr_energy">    -28.55730310 </i>
    <i name="e_wo_entrp">    -28.55730310 </i>
    <i name="e_0_energy">    -28.55730310 </i>
   </energy>
  </scstep>
  <scstep>
   <time name="diag">    0.67    0.67</time>
   <time name="diis">    3.77    3.77</time>
   <time name="orth">    0.02    0.02</time>
   <time name="total">    7.70    7.72</time>
   <energy>
    <i name="e_fr_energy">    -28.55688427 </i>
    <i name="e_wo_entrp">    -28.55688427 </i>
    <i name="e_0_energy">    -28.55688427 </i>
   </energy>
  </scstep>
  <scstep>
   <time name="diag">    0.67    0.67</time>
   <time name="diis">    3.75    3.77</time>
   <time name="orth">    0.02    0.02</time>
   <time name="total">    7.66    7.69</time>
   <energy>
    <i name="e_fr_energy">    -28.55666656 </i>
    <i name="e_wo_entrp">    -28.55666656 </i>
    <i name="e_0_energy">    -28.55666656 </i>
   </energy>
  </scstep>
  <scstep>
   <time name="diag">    0.67    0.67</time>
   <time name="diis">    3.90    3.97</time>
   <time name="orth">    0.02    0.02</time>
   <time name="total">    7.85    7.93</time>
   <energy>
    <i name="e_fr_energy">    -28.55592461 </i>
    <i name="e_wo_entrp">    -28.55592461 </i>
    <i name="e_0_energy">    -28.55592461 </i>
   </energy>
  </scstep>
  <scstep>
   <time name="diag">    0.67    0.67</time>
   <time name="diis">    3.52    3.52</time>
   <time name="orth">    0.02    0.02</time>
   <time name="total">    7.47    7.49</time>
   <energy>
    <i name="e_fr_energy">    -28.55583306 </i>
    <i name="e_wo_entrp">    -28.55583306 </i>
    <i name="e_0_energy">    -28.55583306 </i>
   </energy>
  </scstep>
  <scstep>
   <time name="diag">    0.67    0.67</time>
   <time name="diis">    3.75    3.75</time>
   <time name="orth">    0.02    0.02</time>
   <time name="total">    7.73    7.74</time>
   <energy>
    <i name="e_fr_energy">    -28.55556610 </i>
    <i name="e_wo_entrp">    -28.55556610 </i>
    <i name="e_0_energy">    -28.55556610 </i>
   </energy>
  </scstep>
  <scstep>
   <time name="diag">    0.67    0.68</time>
   <time name="diis">    3.15    3.17</time>
   <time name="orth">    0.02    0.02</time>
   <time name="total">    7.21    7.25</time>
   <energy>
    <i name="e_fr_energy">    -28.55577412 </i>
    <i name="e_wo_entrp">    -28.55577412 </i>
    <i name="e_0_energy">    -28.55577412 </i>
   </energy>
  </scstep>
  <scstep>
   <time name="diag">    0.66    0.66</time>
   <time name="diis">    3.71    3.71</time>
   <time name="orth">    0.02    0.02</time>
   <time name="total">    7.68    7.69</time>
   <energy>
    <i name="e_fr_energy">    -28.55591381 </i>
    <i name="e_wo_entrp">    -28.55591381 </i>
    <i name="e_0_energy">    -28.55591381 </i>
   </energy>
  </scstep>
  <scstep>
   <time name="diag">    0.67    0.67</time>
   <time name="diis">    3.25    3.26</time>
   <time name="orth">    0.02    0.02</time>
   <time name="total">    7.22    7.23</time>
   <energy>
    <i name="e_fr_energy">    -28.55684270 </i>
    <i name="e_wo_entrp">    -28.55684270 </i>
    <i name="e_0_energy">    -28.55684270 </i>
   </energy>
  </scstep>
  <scstep>
   <time name="diag">    0.67    0.67</time>
   <time name="diis">    3.98    3.99</time>
   <time name="orth">    0.02    0.02</time>
   <time name="total">    7.94    7.96</time>
   <energy>
    <i name="e_fr_energy">    -28.55753240 </i>
    <i name="e_wo_entrp">    -28.55753240 </i>
    <i name="e_0_energy">    -28.55753240 </i>
   </energy>
  </scstep>
  <scstep>
   <time name="diag">    0.67    0.67</time>
   <time name="diis">    3.70    3.70</time>
   <time name="orth">    0.02    0.02</time>
   <time name="total">    7.69    7.70</time>
   <energy>
    <i name="e_fr_energy">    -28.55804591 </i>
    <i name="e_wo_entrp">    -28.55804591 </i>
    <i name="e_0_energy">    -28.55804591 </i>
   </energy>
  </scstep>
  <scstep>
   <time name="diag">    0.68    0.68</time>
   <time name="diis">    3.62    3.63</time>
   <time name="orth">    0.02    0.02</time>
   <time name="total">    7.63    7.64</time>
   <energy>
    <i name="e_fr_energy">    -28.55828736 </i>
    <i name="e_wo_entrp">    -28.55828736 </i>
    <i name="e_0_energy">    -28.55828736 </i>
   </energy>
  </scstep>
  <scstep>
   <time name="diag">    0.67    0.67</time>
   <time name="diis">    3.99    3.99</time>
   <time name="orth">    0.02    0.02</time>
   <time name="total">    7.99    8.00</time>
   <energy>
    <i name="e_fr_energy">    -28.55851762 </i>
    <i name="e_wo_entrp">    -28.55851762 </i>
    <i name="e_0_energy">    -28.55851762 </i>
   </energy>
  </scstep>
  <scstep>
   <time name="diag">    0.66    0.66</time>
   <time name="diis">    3.55    3.56</time>
   <time name="orth">    0.02    0.02</time>
   <time name="total">    7.57    7.57</time>
   <energy>
    <i name="e_fr_energy">    -28.55864406 </i>
    <i name="e_wo_entrp">    -28.55864406 </i>
    <i name="e_0_energy">    -28.55864406 </i>
   </energy>
  </scstep>
  <scstep>
   <time name="diag">    0.66    0.69</time>
   <time name="diis">    3.93    3.94</time>
   <time name="orth">    0.02    0.02</time>
   <time name="total">    7.97    8.02</time>
   <energy>
    <i name="e_fr_energy">    -28.55868197 </i>
    <i name="e_wo_entrp">    -28.55868197 </i>
    <i name="e_0_energy">    -28.55868197 </i>
   </energy>
  </scstep>
  <scstep>
   <time name="diag">    0.67    0.67</time>
   <time name="diis">    3.52    3.53</time>
   <time name="orth">    0.02    0.02</time>
   <time name="total">    7.58    7.59</time>
   <energy>
    <i name="e_fr_energy">    -28.55870876 </i>
    <i name="e_wo_entrp">    -28.55870876 </i>
    <i name="e_0_energy">    -28.55870876 </i>
   </energy>
  </scstep>
  <scstep>
   <time name="diag">    0.66    0.66</time>
   <time name="diis">    3.50    3.50</time>
   <time name="orth">    0.02    0.02</time>
   <time name="total">    7.52    7.53</time>
   <energy>
    <i name="e_fr_energy">    -28.55871499 </i>
    <i name="e_wo_entrp">    -28.55871499 </i>
    <i name="e_0_energy">    -28.55871499 </i>
   </energy>
  </scstep>
  <scstep>
   <time name="diag">    0.66    0.66</time>
   <time name="diis">    3.48    3.48</time>
   <time name="orth">    0.02    0.02</time>
   <time name="total">    7.57    7.58</time>
   <energy>
    <i name="e_fr_energy">    -28.55872170 </i>
    <i name="e_wo_entrp">    -28.55872170 </i>
    <i name="e_0_energy">    -28.55872170 </i>
   </energy>
  </scstep>
  <scstep>
   <time name="diag">    0.65    0.67</time>
   <time name="diis">    3.37    3.37</time>
   <time name="orth">    0.02    0.02</time>
   <time name="total">    7.43    7.45</time>
   <energy>
    <i name="e_fr_energy">    -28.55872321 </i>
    <i name="e_wo_entrp">    -28.55872321 </i>
    <i name="e_0_energy">    -28.55872321 </i>
   </energy>
  </scstep>
  <scstep>
   <time name="diag">    0.67    0.67</time>
   <time name="diis">    2.84    2.85</time>
   <time name="orth">    0.02    0.02</time>
   <time name="total">    6.97    6.98</time>
   <energy>
    <i name="e_fr_energy">    -28.55872443 </i>
    <i name="e_wo_entrp">    -28.55872443 </i>
    <i name="e_0_energy">    -28.55872443 </i>
   </energy>
  </scstep>
  <scstep>
   <time name="diag">    0.66    0.67</time>
   <time name="diis">    2.68    2.68</time>
   <time name="orth">    0.02    0.02</time>
   <time name="total">    6.81    6.82</time>
   <energy>
    <i name="e_fr_energy">    -28.55872467 </i>
    <i name="e_wo_entrp">    -28.55872467 </i>
    <i name="e_0_energy">    -28.55872467 </i>
   </energy>
  </scstep>
  <scstep>
   <time name="diag">    0.66    0.67</time>
   <time name="diis">    2.83    2.83</time>
   <time name="orth">    0.02    0.02</time>
   <time name="total">    7.00    7.01</time>
   <energy>
    <i name="e_fr_energy">    -28.55872485 </i>
    <i name="e_wo_entrp">    -28.55872485 </i>
    <i name="e_0_energy">    -28.55872485 </i>
   </energy>
  </scstep>
  <scstep>
   <time name="diag">    0.67    0.67</time>
   <time name="diis">    2.70    2.72</time>
   <time name="orth">    0.02    0.02</time>
   <time name="total">    6.98    7.01</time>
   <energy>
    <i name="e_fr_energy">    -28.55872506 </i>
    <i name="e_wo_entrp">    -28.55872506 </i>
    <i name="e_0_energy">    -28.55872506 </i>
   </energy>
  </scstep>
  <scstep>
   <time name="diag">    0.66    0.66</time>
   <time name="diis">    2.52    2.52</time>
   <time name="orth">    0.02    0.02</time>
   <time name="total">    6.72    6.74</time>
   <energy>
    <i name="e_fr_energy">    -28.55872517 </i>
    <i name="e_wo_entrp">    -28.55872517 </i>
    <i name="e_0_energy">    -28.55872517 </i>
   </energy>
  </scstep>
  <scstep>
   <time name="diag">    0.67    0.67</time>
   <time name="diis">    2.65    2.65</time>
   <time name="orth">    0.02    0.02</time>
   <time name="total">    6.87    6.87</time>
   <energy>
    <i name="e_fr_energy">    -28.55872522 </i>
    <i name="e_wo_entrp">    -28.55872522 </i>
    <i name="e_0_energy">    -28.55872522 </i>
   </energy>
  </scstep>
  <scstep>
   <time name="diag">    0.67    0.67</time>
   <time name="diis">    2.53    2.53</time>
   <time name="orth">    0.02    0.02</time>
   <time name="total">    6.74    6.75</time>
   <energy>
    <i name="e_fr_energy">    -28.55872534 </i>
    <i name="e_wo_entrp">    -28.55872534 </i>
    <i name="e_0_energy">    -28.55872534 </i>
   </energy>
  </scstep>
  <scstep>
   <time name="diag">    0.67    0.67</time>
   <time name="diis">    2.66    2.66</time>
   <time name="orth">    0.02    0.02</time>
   <time name="total">    6.90    6.90</time>
   <energy>
    <i name="e_fr_energy">    -28.55872565 </i>
    <i name="e_wo_entrp">    -28.55872565 </i>
    <i name="e_0_energy">    -28.55872565 </i>
   </energy>
  </scstep>
  <scstep>
   <time name="diag">    0.66    0.66</time>
   <time name="diis">    2.83    2.83</time>
   <time name="orth">    0.02    0.02</time>
   <time name="total">    7.06    7.07</time>
   <energy>
    <i name="e_fr_energy">    -28.55872580 </i>
    <i name="e_wo_entrp">    -28.55872580 </i>
    <i name="e_0_energy">    -28.55872580 </i>
   </energy>
  </scstep>
  <scstep>
   <time name="diag">    0.67    0.67</time>
   <time name="diis">    2.72    2.73</time>
   <time name="orth">    0.02    0.02</time>
   <time name="total">    6.98    6.99</time>
   <energy>
    <i name="e_fr_energy">    -28.55872591 </i>
    <i name="e_wo_entrp">    -28.55872591 </i>
    <i name="e_0_energy">    -28.55872591 </i>
   </energy>
  </scstep>
  <scstep>
   <time name="diag">    0.67    0.67</time>
   <time name="diis">    2.62    2.62</time>
   <time name="orth">    0.02    0.02</time>
   <time name="total">    6.91    6.92</time>
   <energy>
    <i name="e_fr_energy">    -28.55872598 </i>
    <i name="e_wo_entrp">    -28.55872598 </i>
    <i name="e_0_energy">    -28.55872598 </i>
   </energy>
  </scstep>
  <scstep>
   <time name="diag">    0.66    0.66</time>
   <time name="diis">    2.59    2.59</time>
   <time name="orth">    0.02    0.02</time>
   <time name="total">    6.88    6.88</time>
   <energy>
    <i name="e_fr_energy">    -28.55872604 </i>
    <i name="e_wo_entrp">    -28.55872604 </i>
    <i name="e_0_energy">    -28.55872604 </i>
   </energy>
  </scstep>
  <scstep>
   <time name="diag">    0.67    0.67</time>
   <time name="diis">    2.65    2.66</time>
   <time name="orth">    0.02    0.02</time>
   <time name="total">    6.94    6.96</time>
   <energy>
    <i name="e_fr_energy">    -28.55872605 </i>
    <i name="e_wo_entrp">    -28.55872605 </i>
    <i name="e_0_energy">    -28.55872605 </i>
   </energy>
  </scstep>
  <scstep>
   <time name="diag">    0.66    0.66</time>
   <time name="diis">    2.53    2.54</time>
   <time name="orth">    0.02    0.02</time>
   <time name="total">    5.93    5.93</time>
   <energy>
    <i name="alphaZ">      0.21758540 </i>
    <i name="ewald">    511.13025911 </i>
    <i name="hartreedc">  -1301.33910125 </i>
    <i name="XCdc">     64.10459325 </i>
    <i name="pawpsdc">   5079.20579004 </i>
    <i name="pawaedc">  -5082.10576651 </i>
    <i name="eentropy">     -0.00000000 </i>
    <i name="bandstr">   -214.47575479 </i>
    <i name="atom">    914.70366869 </i>
    <i name="e_fr_energy">    -28.55872605 </i>
    <i name="e_wo_entrp">    -28.55872605 </i>
    <i name="e_0_energy">    -28.55872605 </i>
   </energy>
  </scstep>
  <structure>
   <crystal>
    <varray name="basis" >
     <v>      30.00000000       0.00000000       0.00000000 </v>
     <v>       0.00000000      10.00000000       0.00000000 </v>
     <v>       0.00000000       0.00000000      10.00000000 </v>
    </varray>
    <i name="volume">   3000.00000000 </i>
    <varray name="rec_basis" >
     <v>       0.03333333       0.00000000       0.00000000 </v>
     <v>       0.00000000       0.10000000       0.00000000 </v>
     <v>       0.00000000       0.00000000       0.10000000 </v>
    </varray>
   </crystal>
   <varray name="positions" >
    <v>       0.05453563       0.15710957       0.17600000 </v>
    <v>       0.95513104       0.15710957       0.17600000 </v>
    <v>       0.06521080       0.25541218       0.17439231 </v>
    <v>       0.02113922       0.16672783       0.17649328 </v>
    <v>       0.94612303       0.09941802       0.25610440 </v>
    <v>       0.94624850       0.09907990       0.09607226 </v>
   </varray>
  </structure>
  <varray name="forces" >
   <v>      -0.32748323       2.50983735      -0.03214345 </v>
   <v>      -1.03991474      -2.32046992       0.01755856 </v>
   <v>      -0.78486887      -2.41526264       0.04003486 </v>
   <v>       1.03737876      -0.10099320      -0.01023295 </v>
   <v>       0.56218333       1.16418403      -1.67193890 </v>
   <v>       0.55270475       1.16270438       1.65672187 </v>
  </varray>
  <varray name="stress" >
   <v>      -0.99471333      -0.70218075       0.01410660 </v>
   <v>      -0.70218075      -2.01263910       0.02215550 </v>
   <v>       0.01410659       0.02215549      -1.43183792 </v>
  </varray>
  <energy>
   <i name="e_fr_energy">    -28.55872605 </i>
   <i name="e_wo_entrp">    -28.55872605 </i>
   <i name="e_0_energy">     -0.00000000 </i>
  </energy>
  <time name="totalsc">  363.52  364.45</time>
  <eigenvalues>
   <array>
    <dimension dim="1">band</dimension>
    <dimension dim="2">kpoint</dimension>
    <dimension dim="3">spin</dimension>
    <field>eigene</field>
    <field>occ</field>
    <set>
     <set comment="spin 1">
      <set comment="kpoint 1">
       <r>  -25.4812    1.0000 </r>
       <r>  -23.9246    1.0000 </r>
       <r>  -13.2236    1.0000 </r>
       <r>  -11.8166    1.0000 </r>
       <r>  -10.0946    1.0000 </r>
       <r>   -8.5804    1.0000 </r>
       <r>   -7.7702    1.0000 </r>
       <r>   -6.3467    1.0000 </r>
       <r>   -1.5145    0.0000 </r>
       <r>   -0.2256    0.0000 </r>
       <r>    0.0267    0.0000 </r>
       <r>    0.2003    0.0000 </r>
      </set>
      <set comment="kpoint 2">
       <r>  -25.4812    1.0000 </r>
       <r>  -23.9246    1.0000 </r>
       <r>  -13.2236    1.0000 </r>
       <r>  -11.8166    1.0000 </r>
       <r>  -10.0946    1.0000 </r>
       <r>   -8.5804    1.0000 </r>
       <r>   -7.7702    1.0000 </r>
       <r>   -6.3467    1.0000 </r>
       <r>   -1.5145    0.0000 </r>
       <r>   -0.2258    0.0000 </r>
       <r>    0.0275    0.0000 </r>
       <r>    0.1998    0.0000 </r>
      </set>
     </set>
    </set>
   </array>
  </eigenvalues>
  <separator name="orbital magnetization" >
   <v name="MAGDIPOLOUT">      0.00000000      0.00000000      0.00000000</v>
  </separator>
  <dos>
   <i name="efermi">     -6.04298608 </i>
   <total>
    <array>
     <dimension dim="1">gridpoints</dimension>
     <dimension dim="2">spin</dimension>
     <field>energy</field>
     <field>total</field>
     <field>integrated</field>
     <set>
      <set comment="spin 1">
       <r>   -26.7653     0.0000     0.0000 </r>
       <r>   -26.6711     0.0000     0.0000 </r>
       <r>   -26.5770     0.0000     0.0000 </r>
       <r>   -26.4828     0.0000     0.0000 </r>
       <r>   -26.3886     0.0000     0.0000 </r>
       <r>   -26.2945     0.0000     0.0000 </r>
       <r>   -26.2003     0.0000     0.0000 </r>
       <r>   -26.1061     0.0000     0.0000 </r>
       <r>   -26.0120     0.0000     0.0000 </r>
       <r>   -25.9178     0.0000     0.0000 </r>
       <r>   -25.8236     0.0000     0.0000 </r>
       <r>   -25.7295     0.0000     0.0000 </r>
       <r>   -25.6353     0.0001     0.0000 </r>
       <r>   -25.5411     0.9566     0.0901 </r>
       <r>   -25.4470    16.7483     1.6672 </r>
       <r>   -25.3528     3.5311     1.9997 </r>
       <r>   -25.2586     0.0030     2.0000 </r>
       <r>   -25.1645     0.0000     2.0000 </r>
       <r>   -25.0703     0.0000     2.0000 </r>
       <r>   -24.9761     0.0000     2.0000 </r>
       <r>   -24.8820     0.0000     2.0000 </r>
       <r>   -24.7878     0.0000     2.0000 </r>
       <r>   -24.6936     0.0000     2.0000 </r>
       <r>   -24.5995     0.0000     2.0000 </r>
       <r>   -24.5053     0.0000     2.0000 </r>
       <r>   -24.4111     0.0000     2.0000 </r>
       <r>   -24.3170     0.0000     2.0000 </r>
       <r>   -24.2228     0.0000     2.0000 </r>
       <r>   -24.1286     0.0000     2.0000 </r>
       <r>   -24.0345     0.0200     2.0019 </r>
       <r>   -23.9403     6.9485     2.6562 </r>
       <r>   -23.8462    13.9889     3.9735 </r>
       <r>   -23.7520     0.2818     4.0000 </r>
       <r>   -23.6578     0.0000     4.0000 </r>
       <r>   -23.5637     0.0000     4.0000 </r>
       <r>   -23.4695     0.0000     4.0000 </r>
       <r>   -23.3753     0.0000     4.0000 </r>
       <r>   -23.2812     0.0000     4.0000 </r>
       <r>   -23.1870     0.0000     4.0000 </r>
       <r>   -23.0928     0.0000     4.0000 </r>
       <r>   -22.9987     0.0000     4.0000 </r>
       <r>   -22.9045     0.0000     4.0000 </r>
       <r>   -22.8103     0.0000     4.0000 </r>
       <r>   -22.7162     0.0000     4.0000 </r>
       <r>   -22.6220     0.0000     4.0000 </r>
       <r>   -22.5278     0.0000     4.0000 </r>
       <r>   -22.4337     0.0000     4.0000 </r>
       <r>   -22.3395     0.0000     4.0000 </r>
       <r>   -22.2453     0.0000     4.0000 </r>
       <r>   -22.1512     0.0000     4.0000 </r>
       <r>   -22.0570     0.0000     4.0000 </r>
       <r>   -21.9628     0.0000     4.0000 </r>
       <r>   -21.8687     0.0000     4.0000 </r>
       <r>   -21.7745     0.0000     4.0000 </r>
       <r>   -21.6803     0.0000     4.0000 </r>
       <r>   -21.5862     0.0000     4.0000 </r>
       <r>   -21.4920     0.0000     4.0000 </r>
       <r>   -21.3978     0.0000     4.0000 </r>
       <r>   -21.3037     0.0000     4.0000 </r>
       <r>   -21.2095     0.0000     4.0000 </r>
       <r>   -21.1154     0.0000     4.0000 </r>
       <r>   -21.0212     0.0000     4.0000 </r>
       <r>   -20.9270     0.0000     4.0000 </r>
       <r>   -20.8329     0.0000     4.0000 </r>
       <r>   -20.7387     0.0000     4.0000 </r>
       <r>   -20.6445     0.0000     4.0000 </r>
       <r>   -20.5504     0.0000     4.0000 </r>
       <r>   -20.4562     0.0000     4.0000 </r>
       <r>   -20.3620     0.0000     4.0000 </r>
       <r>   -20.2679     0.0000     4.0000 </r>
       <r>   -20.1737     0.0000     4.0000 </r>
       <r>   -20.0795     0.0000     4.0000 </r>
       <r>   -19.9854     0.0000     4.0000 </r>
       <r>   -19.8912     0.0000     4.0000 </r>
       <r>   -19.7970     0.0000     4.0000 </r>
       <r>   -19.7029     0.0000     4.0000 </r>
       <r>   -19.6087     0.0000     4.0000 </r>
       <r>   -19.5145     0.0000     4.0000 </r>
       <r>   -19.4204     0.0000     4.0000 </r>
       <r>   -19.3262     0.0000     4.0000 </r>
       <r>   -19.2320     0.0000     4.0000 </r>
       <r>   -19.1379     0.0000     4.0000 </r>
       <r>   -19.0437     0.0000     4.0000 </r>
       <r>   -18.9495     0.0000     4.0000 </r>
       <r>   -18.8554     0.0000     4.0000 </r>
       <r>   -18.7612     0.0000     4.0000 </r>
       <r>   -18.6670     0.0000     4.0000 </r>
       <r>   -18.5729     0.0000     4.0000 </r>
       <r>   -18.4787     0.0000     4.0000 </r>
       <r>   -18.3846     0.0000     4.0000 </r>
       <r>   -18.2904     0.0000     4.0000 </r>
       <r>   -18.1962     0.0000     4.0000 </r>
       <r>   -18.1021     0.0000     4.0000 </r>
       <r>   -18.0079     0.0000     4.0000 </r>
       <r>   -17.9137     0.0000     4.0000 </r>
       <r>   -17.8196     0.0000     4.0000 </r>
       <r>   -17.7254     0.0000     4.0000 </r>
       <r>   -17.6312     0.0000     4.0000 </r>
       <r>   -17.5371     0.0000     4.0000 </r>
       <r>   -17.4429     0.0000     4.0000 </r>
       <r>   -17.3487     0.0000     4.0000 </r>
       <r>   -17.2546     0.0000     4.0000 </r>
       <r>   -17.1604     0.0000     4.0000 </r>
       <r>   -17.0662     0.0000     4.0000 </r>
       <r>   -16.9721     0.0000     4.0000 </r>
       <r>   -16.8779     0.0000     4.0000 </r>
       <r>   -16.7837     0.0000     4.0000 </r>
       <r>   -16.6896     0.0000     4.0000 </r>
       <r>   -16.5954     0.0000     4.0000 </r>
       <r>   -16.5012     0.0000     4.0000 </r>
       <r>   -16.4071     0.0000     4.0000 </r>
       <r>   -16.3129     0.0000     4.0000 </r>
       <r>   -16.2187     0.0000     4.0000 </r>
       <r>   -16.1246     0.0000     4.0000 </r>
       <r>   -16.0304     0.0000     4.0000 </r>
       <r>   -15.9362     0.0000     4.0000 </r>
       <r>   -15.8421     0.0000     4.0000 </r>
       <r>   -15.7479     0.0000     4.0000 </r>
       <r>   -15.6538     0.0000     4.0000 </r>
       <r>   -15.5596     0.0000     4.0000 </r>
       <r>   -15.4654     0.0000     4.0000 </r>
       <r>   -15.3713     0.0000     4.0000 </r>
       <r>   -15.2771     0.0000     4.0000 </r>
       <r>   -15.1829     0.0000     4.0000 </r>
       <r>   -15.0888     0.0000     4.0000 </r>
       <r>   -14.9946     0.0000     4.0000 </r>
       <r>   -14.9004     0.0000     4.0000 </r>
       <r>   -14.8063     0.0000     4.0000 </r>
       <r>   -14.7121     0.0000     4.0000 </r>
       <r>   -14.6179     0.0000     4.0000 </r>
       <r>   -14.5238     0.0000     4.0000 </r>
       <r>   -14.4296     0.0000     4.0000 </r>
       <r>   -14.3354     0.0000     4.0000 </r>
       <r>   -14.2413     0.0000     4.0000 </r>
       <r>   -14.1471     0.0000     4.0000 </r>
       <r>   -14.0529     0.0000     4.0000 </r>
       <r>   -13.9588     0.0000     4.0000 </r>
       <r>   -13.8646     0.0000     4.0000 </r>
       <r>   -13.7704     0.0000     4.0000 </r>
       <r>   -13.6763     0.0000     4.0000 </r>
       <r>   -13.5821     0.0000     4.0000 </r>
       <r>   -13.4879     0.0000     4.0000 </r>
       <r>   -13.3938     0.0000     4.0000 </r>
       <r>   -13.2996     0.3347     4.0315 </r>
       <r>   -13.2054    14.4478     5.3920 </r>
       <r>   -13.1113     6.4409     5.9985 </r>
       <r>   -13.0171     0.0158     6.0000 </r>
       <r>   -12.9230     0.0000     6.0000 </r>
       <r>   -12.8288     0.0000     6.0000 </r>
       <r>   -12.7346     0.0000     6.0000 </r>
       <r>   -12.6405     0.0000     6.0000 </r>
       <r>   -12.5463     0.0000     6.0000 </r>
       <r>   -12.4521     0.0000     6.0000 </r>
       <r>   -12.3580     0.0000     6.0000 </r>
       <r>   -12.2638     0.0000     6.0000 </r>
       <r>   -12.1696     0.0000     6.0000 </r>
       <r>   -12.0755     0.0000     6.0000 </r>
       <r>   -11.9813     0.0000     6.0000 </r>
       <r>   -11.8871     0.4885     6.0460 </r>
       <r>   -11.7930    15.3973     7.4959 </r>
       <r>   -11.6988     5.3442     7.9991 </r>
       <r>   -11.6046     0.0092     8.0000 </r>
       <r>   -11.5105     0.0000     8.0000 </r>
       <r>   -11.4163     0.0000     8.0000 </r>
       <r>   -11.3221     0.0000     8.0000 </r>
       <r>   -11.2280     0.0000     8.0000 </r>
       <r>   -11.1338     0.0000     8.0000 </r>
       <r>   -11.0396     0.0000     8.0000 </r>
       <r>   -10.9455     0.0000     8.0000 </r>
       <r>   -10.8513     0.0000     8.0000 </r>
       <r>   -10.7571     0.0000     8.0000 </r>
       <r>   -10.6630     0.0000     8.0000 </r>
       <r>   -10.5688     0.0000     8.0000 </r>
       <r>   -10.4747     0.0000     8.0000 </r>
       <r>   -10.3805     0.0000     8.0000 </r>
       <r>   -10.2863     0.0000     8.0000 </r>
       <r>   -10.1922     0.0616     8.0058 </r>
       <r>   -10.0980     9.7488     8.9238 </r>
       <r>   -10.0038    11.3202     9.9898 </r>
       <r>    -9.9097     0.1087    10.0000 </r>
       <r>    -9.8155     0.0000    10.0000 </r>
       <r>    -9.7213     0.0000    10.0000 </r>
       <r>    -9.6272     0.0000    10.0000 </r>
       <r>    -9.5330     0.0000    10.0000 </r>
       <r>    -9.4388     0.0000    10.0000 </r>
       <r>    -9.3447     0.0000    10.0000 </r>
       <r>    -9.2505     0.0000    10.0000 </r>
       <r>    -9.1563     0.0000    10.0000 </r>
       <r>    -9.0622     0.0000    10.0000 </r>
       <r>    -8.9680     0.0000    10.0000 </r>
       <r>    -8.8738     0.0000    10.0000 </r>
       <r>    -8.7797     0.0000    10.0000 </r>
       <r>    -8.6855     0.0314    10.0030 </r>
       <r>    -8.5913     8.0104    10.7573 </r>
       <r>    -8.4972    13.0004    11.9814 </r>
       <r>    -8.4030     0.1971    12.0000 </r>
       <r>    -8.3088     0.0000    12.0000 </r>
       <r>    -8.2147     0.0000    12.0000 </r>
       <r>    -8.1205     0.0000    12.0000 </r>
       <r>    -8.0263     0.0000    12.0000 </r>
       <r>    -7.9322     0.0000    12.0000 </r>
       <r>    -7.8380     0.5863    12.0552 </r>
       <r>    -7.7439    15.8151    13.5444 </r>
       <r>    -7.6497     4.8309    13.9993 </r>
       <r>    -7.5555     0.0069    14.0000 </r>
       <r>    -7.4614     0.0000    14.0000 </r>
       <r>    -7.3672     0.0000    14.0000 </r>
       <r>    -7.2730     0.0000    14.0000 </r>
       <r>    -7.1789     0.0000    14.0000 </r>
       <r>    -7.0847     0.0000    14.0000 </r>
       <r>    -6.9905     0.0000    14.0000 </r>
       <r>    -6.8964     0.0000    14.0000 </r>
       <r>    -6.8022     0.0000    14.0000 </r>
       <r>    -6.7080     0.0000    14.0000 </r>
       <r>    -6.6139     0.0000    14.0000 </r>
       <r>    -6.5197     0.0000    14.0000 </r>
       <r>    -6.4255     0.2730    14.0257 </r>
       <r>    -6.3314    13.9024    15.3348 </r>
       <r>    -6.2372     7.0430    15.9980 </r>
       <r>    -6.1430     0.0208    16.0000 </r>
       <r>    -6.0489     0.0000    16.0000 </r>
       <r>    -5.9547     0.0000    16.0000 </r>
       <r>    -5.8605     0.0000    16.0000 </r>
       <r>    -5.7664     0.0000    16.0000 </r>
       <r>    -5.6722     0.0000    16.0000 </r>
       <r>    -5.5780     0.0000    16.0000 </r>
       <r>    -5.4839     0.0000    16.0000 </r>
       <r>    -5.3897     0.0000    16.0000 </r>
       <r>    -5.2955     0.0000    16.0000 </r>
       <r>    -5.2014     0.0000    16.0000 </r>
       <r>    -5.1072     0.0000    16.0000 </r>
       <r>    -5.0131     0.0000    16.0000 </r>
       <r>    -4.9189     0.0000    16.0000 </r>
       <r>    -4.8247     0.0000    16.0000 </r>
       <r>    -4.7306     0.0000    16.0000 </r>
       <r>    -4.6364     0.0000    16.0000 </r>
       <r>    -4.5422     0.0000    16.0000 </r>
       <r>    -4.4481     0.0000    16.0000 </r>
       <r>    -4.3539     0.0000    16.0000 </r>
       <r>    -4.2597     0.0000    16.0000 </r>
       <r>    -4.1656     0.0000    16.0000 </r>
       <r>    -4.0714     0.0000    16.0000 </r>
       <r>    -3.9772     0.0000    16.0000 </r>
       <r>    -3.8831     0.0000    16.0000 </r>
       <r>    -3.7889     0.0000    16.0000 </r>
       <r>    -3.6947     0.0000    16.0000 </r>
       <r>    -3.6006     0.0000    16.0000 </r>
       <r>    -3.5064     0.0000    16.0000 </r>
       <r>    -3.4122     0.0000    16.0000 </r>
       <r>    -3.3181     0.0000    16.0000 </r>
       <r>    -3.2239     0.0000    16.0000 </r>
       <r>    -3.1297     0.0000    16.0000 </r>
       <r>    -3.0356     0.0000    16.0000 </r>
       <r>    -2.9414     0.0000    16.0000 </r>
       <r>    -2.8472     0.0000    16.0000 </r>
       <r>    -2.7531     0.0000    16.0000 </r>
       <r>    -2.6589     0.0000    16.0000 </r>
       <r>    -2.5647     0.0000    16.0000 </r>
       <r>    -2.4706     0.0000    16.0000 </r>
       <r>    -2.3764     0.0000    16.0000 </r>
       <r>    -2.2823     0.0000    16.0000 </r>
       <r>    -2.1881     0.0000    16.0000 </r>
       <r>    -2.0939     0.0000    16.0000 </r>
       <r>    -1.9998     0.0000    16.0000 </r>
       <r>    -1.9056     0.0000    16.0000 </r>
       <r>    -1.8114     0.0000    16.0000 </r>
       <r>    -1.7173     0.0000    16.0000 </r>
       <r>    -1.6231     0.0225    16.0021 </r>
       <r>    -1.5289     7.2245    16.6824 </r>
       <r>    -1.4348    13.7353    17.9758 </r>
       <r>    -1.3406     0.2568    18.0000 </r>
       <r>    -1.2464     0.0000    18.0000 </r>
       <r>    -1.1523     0.0000    18.0000 </r>
       <r>    -1.0581     0.0000    18.0000 </r>
       <r>    -0.9639     0.0000    18.0000 </r>
       <r>    -0.8698     0.0000    18.0000 </r>
       <r>    -0.7756     0.0000    18.0000 </r>
       <r>    -0.6814     0.0000    18.0000 </r>
       <r>    -0.5873     0.0000    18.0000 </r>
       <r>    -0.4931     0.0000    18.0000 </r>
       <r>    -0.3989     0.0000    18.0000 </r>
       <r>    -0.3048     0.2687    18.0253 </r>
       <r>    -0.2106    13.8592    19.3304 </r>
       <r>    -0.1164     7.0906    19.9980 </r>
       <r>    -0.0223     1.7461    20.1625 </r>
       <r>     0.0719    17.3359    21.7949 </r>
       <r>     0.1661     5.7490    22.3363 </r>
       <r>     0.2602    16.7255    23.9112 </r>
       <r>     0.3544     0.9425    24.0000 </r>
       <r>     0.4485     0.0001    24.0000 </r>
       <r>     0.5427     0.0000    24.0000 </r>
       <r>     0.6369     0.0000    24.0000 </r>
       <r>     0.7310     0.0000    24.0000 </r>
       <r>     0.8252     0.0000    24.0000 </r>
       <r>     0.9194     0.0000    24.0000 </r>
       <r>     1.0135     0.0000    24.0000 </r>
       <r>     1.1077     0.0000    24.0000 </r>
       <r>     1.2019     0.0000    24.0000 </r>
       <r>     1.2960     0.0000    24.0000 </r>
       <r>     1.3902     0.0000    24.0000 </r>
       <r>     1.4844     0.0000    24.0000 </r>
      </set>
     </set>
    </array>
   </total>
  </dos>
 </calculation>
 <structure name="finalpos" >
  <crystal>
   <varray name="basis" >
    <v>      30.00000000       0.00000000       0.00000000 </v>
    <v>       0.00000000      10.00000000       0.00000000 </v>
    <v>       0.00000000       0.00000000      10.00000000 </v>
   </varray>
   <i name="volume">   3000.00000000 </i>
   <varray name="rec_basis" >
    <v>       0.03333333       0.00000000       0.00000000 </v>
    <v>       0.00000000       0.10000000       0.00000000 </v>
    <v>       0.00000000       0.00000000       0.10000000 </v>
   </varray>
  </crystal>
  <varray name="positions" >
   <v>       0.05453563       0.15710957       0.17600000 </v>
   <v>       0.95513104       0.15710957       0.17600000 </v>
   <v>       0.06521080       0.25541218       0.17439231 </v>
   <v>       0.02113922       0.16672783       0.17649328 </v>
   <v>       0.94612303       0.09941802       0.25610440 </v>
   <v>       0.94624850       0.09907990       0.09607226 </v>
  </varray>
 </structure>
</modeling>
