<?xml version="1.0" encoding="ISO-8859-1"?>
<modeling>
 <generator>
  <i name="program" type="string">vasp </i>
  <i name="version" type="string">5.4.4.18Apr17-6-g9f103f2a35  </i>
  <i name="subversion" type="string">(build Nov 25 2019 16:34:31) complex            parallel </i>
  <i name="platform" type="string">LinuxIFC </i>
  <i name="date" type="string">2021 04 06 </i>
  <i name="time" type="string">12:18:03 </i>
 </generator>
 <incar>
  <i type="string" name="PREC">a</i>
  <i type="string" name="ALGO">fast</i>
  <i name="AMIN">      0.00500000</i>
  <i type="int" name="NELM">   300</i>
  <i type="int" name="NELMIN">     4</i>
  <i type="int" name="IBRION">    -1</i>
  <i name="EDIFF">      0.00000001</i>
  <i type="int" name="NSW">     0</i>
  <i type="int" name="ISIF">     2</i>
  <i name="ENCUT">   1500.00000000</i>
  <i type="logical" name="LREAL"> F  </i>
  <i type="int" name="ISMEAR">     0</i>
  <i name="SIGMA">      0.05000000</i>
  <i name="KSPACING">      0.50000000</i>
  <i type="logical" name="KGAMMA"> F  </i>
  <i name="PSTRESS">      0.00000000</i>
  <i type="logical" name="LWAVE"> F  </i>
  <i type="logical" name="LCHARG"> F  </i>
  <v type="int" name="KPOINT_BSE">    -1     0     0     0</v>
  <i type="int" name="NELM">   300</i>
 </incar>
 <structure name="primitive_cell" >
  <crystal>
   <varray name="basis" >
    <v>      30.00000000       0.00000000       0.00000000 </v>
    <v>       0.00000000      10.00000000       0.00000000 </v>
    <v>       0.00000000       0.00000000      10.00000000 </v>
   </varray>
   <i name="volume">   3000.00000000 </i>
   <varray name="rec_basis" >
    <v>       0.03333333       0.00000000       0.00000000 </v>
    <v>       0.00000000       0.10000000       0.00000000 </v>
    <v>       0.00000000       0.00000000       0.10000000 </v>
   </varray>
  </crystal>
  <varray name="positions" >
   <v>       0.15520229       0.15710957       0.17600000 </v>
   <v>       0.12180589       0.16672783       0.17649328 </v>
   <v>       0.16587747       0.25541218       0.17439231 </v>
   <v>      -0.04486896       0.15710957       0.17600000 </v>
   <v>      -0.05375150       0.09907990       0.09607226 </v>
   <v>      -0.05387697       0.09941802       0.25610440 </v>
  </varray>
 </structure>
 <varray name="primitive_index" >
  <v type="int" >        1 </v>
  <v type="int" >        4 </v>
  <v type="int" >        3 </v>
  <v type="int" >        2 </v>
  <v type="int" >        6 </v>
  <v type="int" >        5 </v>
 </varray>
 <kpoints>
  <generation param="Monkhorst-Pack">
   <v type="int" name="divisions">       1        2        2 </v>
   <v name="usershift">      0.00000000       0.00000000       0.00000000 </v>
   <v name="genvec1">      1.00000000       0.00000000       0.00000000 </v>
   <v name="genvec2">      0.00000000       0.50000000       0.00000000 </v>
   <v name="genvec3">      0.00000000       0.00000000       0.50000000 </v>
   <v name="shift">      0.00000000       0.50000000       0.50000000 </v>
  </generation>
  <varray name="kpointlist" >
   <v>       0.00000000       0.25000000       0.25000000 </v>
   <v>       0.00000000      -0.25000000       0.25000000 </v>
  </varray>
  <varray name="weights" >
   <v>       0.50000000 </v>
   <v>       0.50000000 </v>
  </varray>
 </kpoints>
 <parameters>
  <separator name="general" >
   <i type="string" name="SYSTEM">unknown system</i>
   <i type="logical" name="LCOMPAT"> F  </i>
  </separator>
  <separator name="electronic" >
   <i type="string" name="PREC">a</i>
   <i name="ENMAX">   1500.00000000</i>
   <i name="ENAUG">   1000.00000000</i>
   <i name="EDIFF">      0.00000001</i>
   <i type="int" name="IALGO">    68</i>
   <i type="int" name="IWAVPR">    10</i>
   <i type="int" name="NBANDS">    12</i>
   <i name="NELECT">     16.00000000</i>
   <i type="int" name="TURBO">     0</i>
   <i type="int" name="IRESTART">     0</i>
   <i type="int" name="NREBOOT">     0</i>
   <i type="int" name="NMIN">     0</i>
   <i name="EREF">      0.00000000</i>
   <separator name="electronic smearing" >
    <i type="int" name="ISMEAR">     0</i>
    <i name="SIGMA">      0.05000000</i>
    <i name="KSPACING">      0.50000000</i>
    <i type="logical" name="KGAMMA"> F  </i>
   </separator>
   <separator name="electronic projectors" >
    <i type="logical" name="LREAL"> F  </i>
    <v name="ROPT">      0.00000000      0.00000000</v>
    <i type="int" name="LMAXPAW">  -100</i>
    <i type="int" name="LMAXMIX">     2</i>
    <i type="logical" name="NLSPLINE"> F  </i>
   </separator>
   <separator name="electronic startup" >
    <i type="int" name="ISTART">     0</i>
    <i type="int" name="ICHARG">     2</i>
    <i type="int" name="INIWAV">     1</i>
   </separator>
   <separator name="electronic spin" >
    <i type="int" name="ISPIN">     1</i>
    <i type="logical" name="LNONCOLLINEAR"> F  </i>
    <v name="MAGMOM">      1.00000000      1.00000000      1.00000000      1.00000000      1.00000000      1.00000000</v>
    <i name="NUPDOWN">     -1.00000000</i>
    <i type="logical" name="LSORBIT"> F  </i>
    <v name="SAXIS">      0.00000000      0.00000000      1.00000000</v>
    <i type="logical" name="LSPIRAL"> F  </i>
    <v name="QSPIRAL">      0.00000000      0.00000000      0.00000000</v>
    <i type="logical" name="LZEROZ"> F  </i>
   </separator>
   <separator name="electronic exchange-correlation" >
    <i type="logical" name="LASPH"> F  </i>
    <i type="logical" name="LMETAGGA"> F  </i>
   </separator>
   <separator name="electronic convergence" >
    <i type="int" name="NELM">   300</i>
    <i type="int" name="NELMDL">     0</i>
    <i type="int" name="NELMIN">     4</i>
    <i name="ENINI">   1500.00000000</i>
    <separator name="electronic convergence detail" >
     <i type="logical" name="LDIAG"> T  </i>
     <i type="logical" name="LSUBROT"> F  </i>
     <i name="WEIMIN">      0.00000000</i>
     <i name="EBREAK">      0.00000000</i>
     <i name="DEPER">      0.30000000</i>
     <i type="int" name="NRMM">     4</i>
     <i name="TIME">      0.40000000</i>
    </separator>
   </separator>
   <separator name="electronic mixer" >
    <i name="AMIX">      0.40000000</i>
    <i name="BMIX">      1.00000000</i>
    <i name="AMIN">      0.00500000</i>
    <i name="AMIX_MAG">      1.60000000</i>
    <i name="BMIX_MAG">      1.00000000</i>
    <separator name="electronic mixer details" >
     <i type="int" name="IMIX">     4</i>
     <i type="logical" name="MIXFIRST"> F  </i>
     <i type="int" name="MAXMIX">   -45</i>
     <i name="WC">    100.00000000</i>
     <i type="int" name="INIMIX">     1</i>
     <i type="int" name="MIXPRE">     1</i>
     <i type="int" name="MREMOVE">     5</i>
    </separator>
   </separator>
   <separator name="electronic dipolcorrection" >
    <i type="logical" name="LDIPOL"> F  </i>
    <i type="logical" name="LMONO"> F  </i>
    <i type="int" name="IDIPOL">     0</i>
    <i name="EPSILON">      1.00000000</i>
    <v name="DIPOL">   -100.00000000   -100.00000000   -100.00000000</v>
    <i name="EFIELD">      0.00000000</i>
   </separator>
  </separator>
  <separator name="grids" >
   <i type="int" name="NGX">   384</i>
   <i type="int" name="NGY">   126</i>
   <i type="int" name="NGZ">   126</i>
   <i type="int" name="NGXF">   768</i>
   <i type="int" name="NGYF">   252</i>
   <i type="int" name="NGZF">   252</i>
   <i type="logical" name="ADDGRID"> F  </i>
  </separator>
  <separator name="ionic" >
   <i type="int" name="NSW">     0</i>
   <i type="int" name="IBRION">    -1</i>
   <i type="int" name="MDALGO">     0</i>
   <i type="int" name="ISIF">     2</i>
   <i name="PSTRESS">      0.00000000</i>
   <i name="EDIFFG">      0.00000010</i>
   <i type="int" name="NFREE">     0</i>
   <i name="POTIM">      0.50000000</i>
   <i name="SMASS">     -3.00000000</i>
   <i name="SCALEE">      1.00000000</i>
  </separator>
  <separator name="ionic md" >
   <i name="TEBEG">      0.00010000</i>
   <i name="TEEND">      0.00010000</i>
   <i type="int" name="NBLOCK">     1</i>
   <i type="int" name="KBLOCK">     1</i>
   <i type="int" name="NPACO">   256</i>
   <i name="APACO">     16.00000000</i>
  </separator>
  <separator name="symmetry" >
   <i type="int" name="ISYM">     2</i>
   <i name="SYMPREC">      0.00001000</i>
  </separator>
  <separator name="dos" >
   <i type="int" name="LORBIT">     0</i>
   <v name="RWIGS">     -1.00000000     -1.00000000</v>
   <i type="int" name="NEDOS">   301</i>
   <i name="EMIN">     10.00000000</i>
   <i name="EMAX">    -10.00000000</i>
   <i name="EFERMI">      0.00000000</i>
  </separator>
  <separator name="writing" >
   <i type="int" name="NWRITE">     2</i>
   <i type="logical" name="LWAVE"> F  </i>
   <i type="logical" name="LDOWNSAMPLE"> F  </i>
   <i type="logical" name="LCHARG"> F  </i>
   <i type="logical" name="LPARD"> F  </i>
   <i type="logical" name="LVTOT"> F  </i>
   <i type="logical" name="LVHAR"> F  </i>
   <i type="logical" name="LELF"> F  </i>
   <i type="logical" name="LOPTICS"> F  </i>
   <v name="STM">      0.00000000      0.00000000      0.00000000      0.00000000      0.00000000      0.00000000      0.00000000</v>
  </separator>
  <separator name="performance" >
   <i type="int" name="NPAR">     2</i>
   <i type="int" name="NSIM">     4</i>
   <i type="int" name="NBLK">    -1</i>
   <i type="logical" name="LPLANE"> T  </i>
   <i type="logical" name="LSCALAPACK"> T  </i>
   <i type="logical" name="LSCAAWARE"> F  </i>
   <i type="logical" name="LSCALU"> F  </i>
   <i type="logical" name="LASYNC"> F  </i>
   <i type="logical" name="LORBITALREAL"> F  </i>
  </separator>
  <separator name="miscellaneous" >
   <i type="int" name="IDIOT">     3</i>
   <i type="int" name="ISPECIAL">     0</i>
   <i type="logical" name="LMUSIC"> F  </i>
   <v name="POMASS">     16.00000000      1.00000000</v>
   <v name="DARWINR">      0.00000000      0.00000000</v>
   <v name="DARWINV">      1.00000000      1.00000000</v>
   <i type="logical" name="LCORR"> T  </i>
  </separator>
  <i type="logical" name="GGA_COMPAT"> T  </i>
  <i type="logical" name="LBERRY"> F  </i>
  <i type="int" name="ICORELEVEL">     0</i>
  <i type="logical" name="LDAU"> F  </i>
  <i type="int" name="I_CONSTRAINED_M">     0</i>
  <separator name="electronic exchange-correlation" >
   <i type="string" name="GGA">--</i>
   <i type="int" name="VOSKOWN">     0</i>
   <i type="logical" name="LHFCALC"> F  </i>
   <i type="string" name="PRECFOCK"></i>
   <i type="logical" name="LSYMGRAD"> F  </i>
   <i type="logical" name="LHFONE"> F  </i>
   <i type="logical" name="LRHFCALC"> F  </i>
   <i type="logical" name="LTHOMAS"> F  </i>
   <i type="logical" name="LMODELHF"> F  </i>
   <i name="ENCUT4O">     -1.00000000</i>
   <i type="int" name="EXXOEP">     0</i>
   <i type="int" name="FOURORBIT">     0</i>
   <i name="AEXX">      0.00000000</i>
   <i name="HFALPHA">      0.00000000</i>
   <i name="MCALPHA">      0.00000000</i>
   <i name="ALDAX">      1.00000000</i>
   <i name="AGGAX">      1.00000000</i>
   <i name="ALDAC">      1.00000000</i>
   <i name="AGGAC">      1.00000000</i>
   <i type="int" name="NKREDX">     1</i>
   <i type="int" name="NKREDY">     1</i>
   <i type="int" name="NKREDZ">     1</i>
   <i type="logical" name="SHIFTRED"> F  </i>
   <i type="logical" name="ODDONLY"> F  </i>
   <i type="logical" name="EVENONLY"> F  </i>
   <i type="int" name="LMAXFOCK">     0</i>
   <i type="int" name="NMAXFOCKAE">     0</i>
   <i type="logical" name="LFOCKAEDFT"> F  </i>
   <i name="HFSCREEN">      0.00000000</i>
   <i name="HFSCREENC">      0.00000000</i>
   <i type="int" name="NBANDSGWLOW">     0</i>
  </separator>
  <separator name="vdW DFT" >
   <i type="logical" name="LUSE_VDW"> F  </i>
   <i name="Zab_VDW">     -0.84910000</i>
   <i name="PARAM1">      0.12340000</i>
   <i name="PARAM2">      1.00000000</i>
   <i name="PARAM3">      0.00000000</i>
  </separator>
  <separator name="model GW" >
   <i type="int" name="MODEL_GW">     0</i>
   <i name="MODEL_EPS0">    300.00000000</i>
   <i name="MODEL_ALPHA">      1.00000000</i>
  </separator>
  <separator name="linear response parameters" >
   <i type="logical" name="LEPSILON"> F  </i>
   <i type="logical" name="LRPA"> F  </i>
   <i type="logical" name="LNABLA"> F  </i>
   <i type="logical" name="LVEL"> F  </i>
   <i type="int" name="KINTER">     0</i>
   <i name="CSHIFT">      0.10000000</i>
   <i name="OMEGAMAX">     -1.00000000</i>
   <i name="DEG_THRESHOLD">      0.00200000</i>
   <i name="RTIME">     -0.10000000</i>
   <i name="WPLASMAI">      0.00000000</i>
   <v name="DFIELD">      0.00000000      0.00000000      0.00000000</v>
   <v name="WPLASMA">      0.00000000      0.00000000      0.00000000      0.00000000      0.00000000      0.00000000      0.00000000      0.00000000      0.00000000</v>
  </separator>
  <separator name="orbital magnetization" >
   <i type="logical" name="NUCIND"> F  </i>
   <v name="MAGPOS">      0.00000000      0.00000000      0.00000000</v>
   <i type="logical" name="LNICSALL"> T  </i>
   <i type="logical" name="ORBITALMAG"> F  </i>
   <i type="logical" name="LMAGBLOCH"> F  </i>
   <i type="logical" name="LCHIMAG"> F  </i>
   <i type="logical" name="LGAUGE"> T  </i>
   <i type="int" name="MAGATOM">     0</i>
   <v name="MAGDIPOL">      0.00000000      0.00000000      0.00000000</v>
   <v name="AVECCONST">      0.00000000      0.00000000      0.00000000</v>
  </separator>
  <separator name="response functions" >
   <i type="logical" name="LADDER"> F  </i>
   <i type="logical" name="LRPAFORCE"> F  </i>
   <i type="logical" name="LFXC"> F  </i>
   <i type="logical" name="LHARTREE"> T  </i>
   <i type="int" name="IBSE">     0</i>
   <v type="int" name="KPOINT">    -1     0     0     0</v>
   <i type="logical" name="LTCTE"> F  </i>
   <i type="logical" name="LTETE"> F  </i>
   <i type="logical" name="LTRIPLET"> F  </i>
   <i type="logical" name="LFXCEPS"> F  </i>
   <i type="logical" name="LFXHEG"> F  </i>
   <i type="int" name="NATURALO">     2</i>
   <i type="logical" name="L2ORDER"> F  </i>
   <i type="logical" name="LMP2LT"> F  </i>
   <i type="logical" name="LUSEW"> F  </i>
   <i name="ENCUTGW">     -2.00000000</i>
   <i name="ENCUTGWSOFT">     -2.00000000</i>
   <i name="ENCUTLF">     -1.00000000</i>
   <i type="int" name="LMAXMP2">    -1</i>
   <i name="SCISSOR">      0.00000000</i>
   <i type="int" name="NOMEGA">     0</i>
   <i type="int" name="NOMEGAR">     0</i>
   <i type="int" name="NBANDSGW">    -1</i>
   <i type="int" name="NBANDSO">    -1</i>
   <i type="int" name="NBANDSV">    -1</i>
   <i type="int" name="NELM">   300</i>
   <i type="int" name="NELMHF">     1</i>
   <i type="int" name="DIM">     3</i>
   <i type="int" name="ANTIRES">     0</i>
   <i name="OMEGAMAX">    -30.00000000</i>
   <i name="OMEGAMIN">    -30.00000000</i>
   <i name="OMEGATL">   -200.00000000</i>
   <i type="int" name="OMEGAGRID">   140</i>
   <i name="CSHIFT">     -0.10000000</i>
   <i type="logical" name="SELFENERGY"> F  </i>
   <i type="logical" name="LSPECTRAL"> F  </i>
   <i type="logical" name="LSPECTRALGW"> F  </i>
   <i type="logical" name="LSINGLES"> F  </i>
   <i type="logical" name="LFERMIGW"> F  </i>
   <i type="logical" name="ODDONLYGW"> F  </i>
   <i type="logical" name="EVENONLYGW"> F  </i>
   <i type="int" name="NKREDLFX">     1</i>
   <i type="int" name="NKREDLFY">     1</i>
   <i type="int" name="NKREDLFZ">     1</i>
   <i type="int" name="MAXMEM">  2800</i>
   <i type="int" name="TELESCOPE">     0</i>
   <i type="int" name="TAUPAR">     1</i>
   <i type="int" name="OMEGAPAR">    -1</i>
   <i name="LAMBDA">      1.00000000</i>
  </separator>
  <separator name="External order field" >
   <i name="OFIELD_KAPPA">      0.00000000</i>
   <v name="OFIELD_K">      0.00000000      0.00000000      0.00000000</v>
   <i name="OFIELD_Q6_NEAR">      0.00000000</i>
   <i name="OFIELD_Q6_FAR">      0.00000000</i>
   <i name="OFIELD_A">      0.00000000</i>
  </separator>
 </parameters>
 <atominfo>
  <atoms>       6 </atoms>
  <types>       2 </types>
  <array name="atoms" >
   <dimension dim="1">ion</dimension>
   <field type="string">element</field>
   <field type="int">atomtype</field>
   <set>
    <rc><c>O </c><c>   1</c></rc>
    <rc><c>O </c><c>   1</c></rc>
    <rc><c>H </c><c>   2</c></rc>
    <rc><c>H </c><c>   2</c></rc>
    <rc><c>H </c><c>   2</c></rc>
    <rc><c>H </c><c>   2</c></rc>
   </set>
  </array>
  <array name="atomtypes" >
   <dimension dim="1">type</dimension>
   <field type="int">atomspertype</field>
   <field type="string">element</field>
   <field>mass</field>
   <field>valence</field>
   <field type="string">pseudopotential</field>
   <set>
    <rc><c>   2</c><c>O </c><c>     16.00000000</c><c>      6.00000000</c><c>  PAW_PBE O_h 06Feb2004                 </c></rc>
    <rc><c>   4</c><c>H </c><c>      1.00000000</c><c>      1.00000000</c><c>  PAW_PBE H_h 06Feb2004                 </c></rc>
   </set>
  </array>
 </atominfo>
 <structure name="initialpos" >
  <crystal>
   <varray name="basis" >
    <v>      30.00000000       0.00000000       0.00000000 </v>
    <v>       0.00000000      10.00000000       0.00000000 </v>
    <v>       0.00000000       0.00000000      10.00000000 </v>
   </varray>
   <i name="volume">   3000.00000000 </i>
   <varray name="rec_basis" >
    <v>       0.03333333       0.00000000       0.00000000 </v>
    <v>       0.00000000       0.10000000       0.00000000 </v>
    <v>       0.00000000       0.00000000       0.10000000 </v>
   </varray>
  </crystal>
  <varray name="positions" >
   <v>       0.15520229       0.15710957       0.17600000 </v>
   <v>       0.95513104       0.15710957       0.17600000 </v>
   <v>       0.16587747       0.25541218       0.17439231 </v>
   <v>       0.12180589       0.16672783       0.17649328 </v>
   <v>       0.94612303       0.09941802       0.25610440 </v>
   <v>       0.94624850       0.09907990       0.09607226 </v>
  </varray>
 </structure>
 <calculation>
  <scstep>
   <time name="dav">    3.22    3.23</time>
   <time name="total">    5.93    5.98</time>
   <energy>
    <i name="alphaZ">      0.21758540 </i>
    <i name="ewald">    309.22985469 </i>
    <i name="hartreedc">  -1035.17548637 </i>
    <i name="XCdc">     60.59491090 </i>
    <i name="pawpsdc">    697.41634940 </i>
    <i name="pawaedc">   -699.85762974 </i>
    <i name="eentropy">     -0.00000023 </i>
    <i name="bandstr">    -95.18849973 </i>
    <i name="atom">    914.70366869 </i>
    <i name="e_fr_energy">    151.94075302 </i>
    <i name="e_wo_entrp">    151.94075325 </i>
    <i name="e_0_energy">    151.94075313 </i>
   </energy>
  </scstep>
  <scstep>
   <time name="dav">    4.23    4.27</time>
   <time name="total">    4.23    4.27</time>
   <energy>
    <i name="e_fr_energy">     55.20188284 </i>
    <i name="e_wo_entrp">     55.20189050 </i>
    <i name="e_0_energy">     55.20188667 </i>
   </energy>
  </scstep>
  <scstep>
   <time name="dav">    4.38    4.38</time>
   <time name="total">    4.38    4.38</time>
   <energy>
    <i name="e_fr_energy">    -21.22102854 </i>
    <i name="e_wo_entrp">    -21.22102854 </i>
    <i name="e_0_energy">    -21.22102854 </i>
   </energy>
  </scstep>
  <scstep>
   <time name="dav">    3.06    3.06</time>
   <time name="total">    3.06    3.06</time>
   <energy>
    <i name="e_fr_energy">    -31.64945711 </i>
    <i name="e_wo_entrp">    -31.64945711 </i>
    <i name="e_0_energy">    -31.64945711 </i>
   </energy>
  </scstep>
  <scstep>
   <time name="dav">    3.21    3.21</time>
   <time name="total">    3.74    3.75</time>
   <energy>
    <i name="e_fr_energy">    -31.98148433 </i>
    <i name="e_wo_entrp">    -31.98148433 </i>
    <i name="e_0_energy">    -31.98148433 </i>
   </energy>
  </scstep>
  <scstep>
   <time name="diag">    0.67    0.67</time>
   <time name="diis">    3.62    3.63</time>
   <time name="orth">    0.02    0.02</time>
   <time name="total">    7.55    7.57</time>
   <energy>
    <i name="e_fr_energy">    -28.61140959 </i>
    <i name="e_wo_entrp">    -28.61140959 </i>
    <i name="e_0_energy">    -28.61140959 </i>
   </energy>
  </scstep>
  <scstep>
   <time name="diag">    0.66    0.66</time>
   <time name="diis">    4.26    4.27</time>
   <time name="orth">    0.02    0.02</time>
   <time name="total">    8.20    8.21</time>
   <energy>
    <i name="e_fr_energy">    -28.55682068 </i>
    <i name="e_wo_entrp">    -28.55682068 </i>
    <i name="e_0_energy">    -28.55682068 </i>
   </energy>
  </scstep>
  <scstep>
   <time name="diag">    0.67    0.67</time>
   <time name="diis">    3.61    3.62</time>
   <time name="orth">    0.02    0.02</time>
   <time name="total">    7.67    7.68</time>
   <energy>
    <i name="e_fr_energy">    -29.48203842 </i>
    <i name="e_wo_entrp">    -29.48203842 </i>
    <i name="e_0_energy">    -29.48203842 </i>
   </energy>
  </scstep>
  <scstep>
   <time name="diag">    0.67    0.67</time>
   <time name="diis">    3.61    3.61</time>
   <time name="orth">    0.02    0.02</time>
   <time name="total">    7.53    7.54</time>
   <energy>
    <i name="e_fr_energy">    -28.32478200 </i>
    <i name="e_wo_entrp">    -28.32478200 </i>
    <i name="e_0_energy">    -28.32478200 </i>
   </energy>
  </scstep>
  <scstep>
   <time name="diag">    0.67    0.67</time>
   <time name="diis">    4.28    4.29</time>
   <time name="orth">    0.02    0.02</time>
   <time name="total">    8.25    8.26</time>
   <energy>
    <i name="e_fr_energy">    -28.33801598 </i>
    <i name="e_wo_entrp">    -28.33801598 </i>
    <i name="e_0_energy">    -28.33801598 </i>
   </energy>
  </scstep>
  <scstep>
   <time name="diag">    0.67    0.67</time>
   <time name="diis">    3.63    3.63</time>
   <time name="orth">    0.02    0.02</time>
   <time name="total">    7.60    7.61</time>
   <energy>
    <i name="e_fr_energy">    -28.33634555 </i>
    <i name="e_wo_entrp">    -28.33634555 </i>
    <i name="e_0_energy">    -28.33634555 </i>
   </energy>
  </scstep>
  <scstep>
   <time name="diag">    0.67    0.67</time>
   <time name="diis">    3.63    3.64</time>
   <time name="orth">    0.02    0.02</time>
   <time name="total">    7.57    7.58</time>
   <energy>
    <i name="e_fr_energy">    -28.33395707 </i>
    <i name="e_wo_entrp">    -28.33395707 </i>
    <i name="e_0_energy">    -28.33395707 </i>
   </energy>
  </scstep>
  <scstep>
   <time name="diag">    0.67    0.67</time>
   <time name="diis">    4.03    4.05</time>
   <time name="orth">    0.02    0.02</time>
   <time name="total">    8.01    8.04</time>
   <energy>
    <i name="e_fr_energy">    -28.33677262 </i>
    <i name="e_wo_entrp">    -28.33677262 </i>
    <i name="e_0_energy">    -28.33677262 </i>
   </energy>
  </scstep>
  <scstep>
   <time name="diag">    0.67    0.67</time>
   <time name="diis">    3.61    3.62</time>
   <time name="orth">    0.02    0.02</time>
   <time name="total">    7.56    7.58</time>
   <energy>
    <i name="e_fr_energy">    -28.34424991 </i>
    <i name="e_wo_entrp">    -28.34424991 </i>
    <i name="e_0_energy">    -28.34424991 </i>
   </energy>
  </scstep>
  <scstep>
   <time name="diag">    0.66    0.66</time>
   <time name="diis">    3.73    3.73</time>
   <time name="orth">    0.02    0.02</time>
   <time name="total">    7.67    7.69</time>
   <energy>
    <i name="e_fr_energy">    -28.34504919 </i>
    <i name="e_wo_entrp">    -28.34504919 </i>
    <i name="e_0_energy">    -28.34504919 </i>
   </energy>
  </scstep>
  <scstep>
   <time name="diag">    0.66    0.66</time>
   <time name="diis">    3.67    3.71</time>
   <time name="orth">    0.02    0.02</time>
   <time name="total">    7.59    7.64</time>
   <energy>
    <i name="e_fr_energy">    -28.34668571 </i>
    <i name="e_wo_entrp">    -28.34668571 </i>
    <i name="e_0_energy">    -28.34668571 </i>
   </energy>
  </scstep>
  <scstep>
   <time name="diag">    0.66    0.66</time>
   <time name="diis">    3.79    3.80</time>
   <time name="orth">    0.02    0.02</time>
   <time name="total">    7.72    7.74</time>
   <energy>
    <i name="e_fr_energy">    -28.34958747 </i>
    <i name="e_wo_entrp">    -28.34958747 </i>
    <i name="e_0_energy">    -28.34958747 </i>
   </energy>
  </scstep>
  <scstep>
   <time name="diag">    0.66    0.66</time>
   <time name="diis">    3.75    3.76</time>
   <time name="orth">    0.02    0.02</time>
   <time name="total">    7.66    7.67</time>
   <energy>
    <i name="e_fr_energy">    -28.34898638 </i>
    <i name="e_wo_entrp">    -28.34898638 </i>
    <i name="e_0_energy">    -28.34898638 </i>
   </energy>
  </scstep>
  <scstep>
   <time name="diag">    0.66    0.66</time>
   <time name="diis">    3.52    3.53</time>
   <time name="orth">    0.02    0.02</time>
   <time name="total">    7.42    7.43</time>
   <energy>
    <i name="e_fr_energy">    -28.34838861 </i>
    <i name="e_wo_entrp">    -28.34838861 </i>
    <i name="e_0_energy">    -28.34838861 </i>
   </energy>
  </scstep>
  <scstep>
   <time name="diag">    0.66    0.66</time>
   <time name="diis">    3.72    3.72</time>
   <time name="orth">    0.02    0.02</time>
   <time name="total">    7.62    7.63</time>
   <energy>
    <i name="e_fr_energy">    -28.34832863 </i>
    <i name="e_wo_entrp">    -28.34832863 </i>
    <i name="e_0_energy">    -28.34832863 </i>
   </energy>
  </scstep>
  <scstep>
   <time name="diag">    0.66    0.67</time>
   <time name="diis">    3.40    3.41</time>
   <time name="orth">    0.02    0.02</time>
   <time name="total">    7.34    7.34</time>
   <energy>
    <i name="e_fr_energy">    -28.34894967 </i>
    <i name="e_wo_entrp">    -28.34894967 </i>
    <i name="e_0_energy">    -28.34894967 </i>
   </energy>
  </scstep>
  <scstep>
   <time name="diag">    0.67    0.67</time>
   <time name="diis">    3.75    3.75</time>
   <time name="orth">    0.02    0.02</time>
   <time name="total">    7.71    7.72</time>
   <energy>
    <i name="e_fr_energy">    -28.34859325 </i>
    <i name="e_wo_entrp">    -28.34859325 </i>
    <i name="e_0_energy">    -28.34859325 </i>
   </energy>
  </scstep>
  <scstep>
   <time name="diag">    0.66    0.66</time>
   <time name="diis">    3.42    3.42</time>
   <time name="orth">    0.02    0.02</time>
   <time name="total">    7.37    7.39</time>
   <energy>
    <i name="e_fr_energy">    -28.34763734 </i>
    <i name="e_wo_entrp">    -28.34763734 </i>
    <i name="e_0_energy">    -28.34763734 </i>
   </energy>
  </scstep>
  <scstep>
   <time name="diag">    0.67    0.67</time>
   <time name="diis">    4.02    4.25</time>
   <time name="orth">    0.02    0.02</time>
   <time name="total">    8.00    8.23</time>
   <energy>
    <i name="e_fr_energy">    -28.34788847 </i>
    <i name="e_wo_entrp">    -28.34788847 </i>
    <i name="e_0_energy">    -28.34788847 </i>
   </energy>
  </scstep>
  <scstep>
   <time name="diag">    0.66    0.66</time>
   <time name="diis">    3.18    3.19</time>
   <time name="orth">    0.02    0.02</time>
   <time name="total">    7.18    7.19</time>
   <energy>
    <i name="e_fr_energy">    -28.34839968 </i>
    <i name="e_wo_entrp">    -28.34839968 </i>
    <i name="e_0_energy">    -28.34839968 </i>
   </energy>
  </scstep>
  <scstep>
   <time name="diag">    0.66    0.66</time>
   <time name="diis">    4.03    4.04</time>
   <time name="orth">    0.02    0.02</time>
   <time name="total">    8.01    8.02</time>
   <energy>
    <i name="e_fr_energy">    -28.34856422 </i>
    <i name="e_wo_entrp">    -28.34856422 </i>
    <i name="e_0_energy">    -28.34856422 </i>
   </energy>
  </scstep>
  <scstep>
   <time name="diag">    0.66    0.66</time>
   <time name="diis">    2.96    2.96</time>
   <time name="orth">    0.02    0.02</time>
   <time name="total">    6.96    6.97</time>
   <energy>
    <i name="e_fr_energy">    -28.34869185 </i>
    <i name="e_wo_entrp">    -28.34869185 </i>
    <i name="e_0_energy">    -28.34869185 </i>
   </energy>
  </scstep>
  <scstep>
   <time name="diag">    0.66    0.67</time>
   <time name="diis">    3.13    3.14</time>
   <time name="orth">    0.02    0.02</time>
   <time name="total">    7.14    7.17</time>
   <energy>
    <i name="e_fr_energy">    -28.34888026 </i>
    <i name="e_wo_entrp">    -28.34888026 </i>
    <i name="e_0_energy">    -28.34888026 </i>
   </energy>
  </scstep>
  <scstep>
   <time name="diag">    0.66    0.67</time>
   <time name="diis">    4.05    4.07</time>
   <time name="orth">    0.05    0.05</time>
   <time name="total">    8.07    8.11</time>
   <energy>
    <i name="e_fr_energy">    -28.34902316 </i>
    <i name="e_wo_entrp">    -28.34902316 </i>
    <i name="e_0_energy">    -28.34902316 </i>
   </energy>
  </scstep>
  <scstep>
   <time name="diag">    0.66    0.66</time>
   <time name="diis">    3.08    3.10</time>
   <time name="orth">    0.02    0.02</time>
   <time name="total">    7.11    7.14</time>
   <energy>
    <i name="e_fr_energy">    -28.34926647 </i>
    <i name="e_wo_entrp">    -28.34926647 </i>
    <i name="e_0_energy">    -28.34926647 </i>
   </energy>
  </scstep>
  <scstep>
   <time name="diag">    0.68    0.68</time>
   <time name="diis">    3.96    3.98</time>
   <time name="orth">    0.02    0.02</time>
   <time name="total">    8.02    8.06</time>
   <energy>
    <i name="e_fr_energy">    -28.34948184 </i>
    <i name="e_wo_entrp">    -28.34948184 </i>
    <i name="e_0_energy">    -28.34948184 </i>
   </energy>
  </scstep>
  <scstep>
   <time name="diag">    0.67    0.67</time>
   <time name="diis">    3.56    3.67</time>
   <time name="orth">    0.02    0.02</time>
   <time name="total">    7.58    7.71</time>
   <energy>
    <i name="e_fr_energy">    -28.34956391 </i>
    <i name="e_wo_entrp">    -28.34956391 </i>
    <i name="e_0_energy">    -28.34956391 </i>
   </energy>
  </scstep>
  <scstep>
   <time name="diag">    0.68    0.68</time>
   <time name="diis">    3.67    3.67</time>
   <time name="orth">    0.02    0.02</time>
   <time name="total">    7.74    7.75</time>
   <energy>
    <i name="e_fr_energy">    -28.34964077 </i>
    <i name="e_wo_entrp">    -28.34964077 </i>
    <i name="e_0_energy">    -28.34964077 </i>
   </energy>
  </scstep>
  <scstep>
   <time name="diag">    0.68    0.68</time>
   <time name="diis">    4.17    4.17</time>
   <time name="orth">    0.02    0.02</time>
   <time name="total">    8.27    8.28</time>
   <energy>
    <i name="e_fr_energy">    -28.34966205 </i>
    <i name="e_wo_entrp">    -28.34966205 </i>
    <i name="e_0_energy">    -28.34966205 </i>
   </energy>
  </scstep>
  <scstep>
   <time name="diag">    0.68    0.68</time>
   <time name="diis">    3.11    3.12</time>
   <time name="orth">    0.02    0.02</time>
   <time name="total">    7.23    7.23</time>
   <energy>
    <i name="e_fr_energy">    -28.34967275 </i>
    <i name="e_wo_entrp">    -28.34967275 </i>
    <i name="e_0_energy">    -28.34967275 </i>
   </energy>
  </scstep>
  <scstep>
   <time name="diag">    0.67    0.67</time>
   <time name="diis">    3.41    3.42</time>
   <time name="orth">    0.02    0.02</time>
   <time name="total">    7.52    7.54</time>
   <energy>
    <i name="e_fr_energy">    -28.34967719 </i>
    <i name="e_wo_entrp">    -28.34967719 </i>
    <i name="e_0_energy">    -28.34967719 </i>
   </energy>
  </scstep>
  <scstep>
   <time name="diag">    0.67    0.67</time>
   <time name="diis">    3.61    3.62</time>
   <time name="orth">    0.02    0.02</time>
   <time name="total">    7.72    7.74</time>
   <energy>
    <i name="e_fr_energy">    -28.34968039 </i>
    <i name="e_wo_entrp">    -28.34968039 </i>
    <i name="e_0_energy">    -28.34968039 </i>
   </energy>
  </scstep>
  <scstep>
   <time name="diag">    0.67    0.67</time>
   <time name="diis">    3.20    3.20</time>
   <time name="orth">    0.02    0.02</time>
   <time name="total">    7.37    7.38</time>
   <energy>
    <i name="e_fr_energy">    -28.34968230 </i>
    <i name="e_wo_entrp">    -28.34968230 </i>
    <i name="e_0_energy">    -28.34968230 </i>
   </energy>
  </scstep>
  <scstep>
   <time name="diag">    0.67    0.67</time>
   <time name="diis">    2.60    2.60</time>
   <time name="orth">    0.02    0.02</time>
   <time name="total">    6.78    6.78</time>
   <energy>
    <i name="e_fr_energy">    -28.34968316 </i>
    <i name="e_wo_entrp">    -28.34968316 </i>
    <i name="e_0_energy">    -28.34968316 </i>
   </energy>
  </scstep>
  <scstep>
   <time name="diag">    0.67    0.67</time>
   <time name="diis">    2.75    2.77</time>
   <time name="orth">    0.02    0.02</time>
   <time name="total">    6.92    6.98</time>
   <energy>
    <i name="e_fr_energy">    -28.34968358 </i>
    <i name="e_wo_entrp">    -28.34968358 </i>
    <i name="e_0_energy">    -28.34968358 </i>
   </energy>
  </scstep>
  <scstep>
   <time name="diag">    0.67    0.67</time>
   <time name="diis">    2.64    2.64</time>
   <time name="orth">    0.02    0.02</time>
   <time name="total">    6.79    6.80</time>
   <energy>
    <i name="e_fr_energy">    -28.34968366 </i>
    <i name="e_wo_entrp">    -28.34968366 </i>
    <i name="e_0_energy">    -28.34968366 </i>
   </energy>
  </scstep>
  <scstep>
   <time name="diag">    0.67    0.67</time>
   <time name="diis">    2.33    2.34</time>
   <time name="orth">    0.02    0.02</time>
   <time name="total">    6.61    6.62</time>
   <energy>
    <i name="e_fr_energy">    -28.34968378 </i>
    <i name="e_wo_entrp">    -28.34968378 </i>
    <i name="e_0_energy">    -28.34968378 </i>
   </energy>
  </scstep>
  <scstep>
   <time name="diag">    0.67    0.67</time>
   <time name="diis">    2.61    2.61</time>
   <time name="orth">    0.02    0.02</time>
   <time name="total">    6.85    6.85</time>
   <energy>
    <i name="e_fr_energy">    -28.34968382 </i>
    <i name="e_wo_entrp">    -28.34968382 </i>
    <i name="e_0_energy">    -28.34968382 </i>
   </energy>
  </scstep>
  <scstep>
   <time name="diag">    0.67    0.67</time>
   <time name="diis">    2.31    2.31</time>
   <time name="orth">    0.02    0.02</time>
   <time name="total">    6.52    6.53</time>
   <energy>
    <i name="e_fr_energy">    -28.34968387 </i>
    <i name="e_wo_entrp">    -28.34968387 </i>
    <i name="e_0_energy">    -28.34968387 </i>
   </energy>
  </scstep>
  <scstep>
   <time name="diag">    0.67    0.67</time>
   <time name="diis">    2.40    2.40</time>
   <time name="orth">    0.02    0.02</time>
   <time name="total">    6.63    6.63</time>
   <energy>
    <i name="e_fr_energy">    -28.34968389 </i>
    <i name="e_wo_entrp">    -28.34968389 </i>
    <i name="e_0_energy">    -28.34968389 </i>
   </energy>
  </scstep>
  <scstep>
   <time name="diag">    0.67    0.67</time>
   <time name="diis">    2.41    2.41</time>
   <time name="orth">    0.02    0.02</time>
   <time name="total">    6.67    6.68</time>
   <energy>
    <i name="e_fr_energy">    -28.34968391 </i>
    <i name="e_wo_entrp">    -28.34968391 </i>
    <i name="e_0_energy">    -28.34968391 </i>
   </energy>
  </scstep>
  <scstep>
   <time name="diag">    0.67    0.67</time>
   <time name="diis">    2.41    2.41</time>
   <time name="orth">    0.02    0.02</time>
   <time name="total">    6.66    6.67</time>
   <energy>
    <i name="e_fr_energy">    -28.34968393 </i>
    <i name="e_wo_entrp">    -28.34968393 </i>
    <i name="e_0_energy">    -28.34968393 </i>
   </energy>
  </scstep>
  <scstep>
   <time name="diag">    0.67    0.67</time>
   <time name="diis">    2.55    2.55</time>
   <time name="orth">    0.02    0.02</time>
   <time name="total">    6.00    6.00</time>
   <energy>
    <i name="alphaZ">      0.21758540 </i>
    <i name="ewald">    309.22985469 </i>
    <i name="hartreedc">  -1099.38563805 </i>
    <i name="XCdc">     63.97164050 </i>
    <i name="pawpsdc">   5061.35593656 </i>
    <i name="pawaedc">  -5064.24066026 </i>
    <i name="eentropy">     -0.00000000 </i>
    <i name="bandstr">   -214.20207147 </i>
    <i name="atom">    914.70366869 </i>
    <i name="e_fr_energy">    -28.34968394 </i>
    <i name="e_wo_entrp">    -28.34968394 </i>
    <i name="e_0_energy">    -28.34968394 </i>
   </energy>
  </scstep>
  <structure>
   <crystal>
    <varray name="basis" >
     <v>      30.00000000       0.00000000       0.00000000 </v>
     <v>       0.00000000      10.00000000       0.00000000 </v>
     <v>       0.00000000       0.00000000      10.00000000 </v>
    </varray>
    <i name="volume">   3000.00000000 </i>
    <varray name="rec_basis" >
     <v>       0.03333333       0.00000000       0.00000000 </v>
     <v>       0.00000000       0.10000000       0.00000000 </v>
     <v>       0.00000000       0.00000000       0.10000000 </v>
    </varray>
   </crystal>
   <varray name="positions" >
    <v>       0.15520229       0.15710957       0.17600000 </v>
    <v>       0.95513104       0.15710957       0.17600000 </v>
    <v>       0.16587747       0.25541218       0.17439231 </v>
    <v>       0.12180589       0.16672783       0.17649328 </v>
    <v>       0.94612303       0.09941802       0.25610440 </v>
    <v>       0.94624850       0.09907990       0.09607226 </v>
   </varray>
  </structure>
  <varray name="forces" >
   <v>      -0.72040273       2.46759053      -0.03080916 </v>
   <v>      -1.07281542      -2.32889480       0.01509906 </v>
   <v>      -0.80915321      -2.36456094       0.03892559 </v>
   <v>       1.51969705      -0.10266715      -0.00812883 </v>
   <v>       0.54730154       1.16480534      -1.72939551 </v>
   <v>       0.53537278       1.16372703       1.71430885 </v>
  </varray>
  <varray name="stress" >
   <v>      -1.16244767      -0.68133283       0.01656907 </v>
   <v>      -0.68133283      -1.99635834       0.02153835 </v>
   <v>       0.01656906       0.02153834      -1.48661286 </v>
  </varray>
  <energy>
   <i name="e_fr_energy">    -28.34968394 </i>
   <i name="e_wo_entrp">    -28.34968394 </i>
   <i name="e_0_energy">     -0.00000000 </i>
  </energy>
  <time name="totalsc">  348.03  349.30</time>
  <eigenvalues>
   <array>
    <dimension dim="1">band</dimension>
    <dimension dim="2">kpoint</dimension>
    <dimension dim="3">spin</dimension>
    <field>eigene</field>
    <field>occ</field>
    <set>
     <set comment="spin 1">
      <set comment="kpoint 1">
       <r>  -24.8566    1.0000 </r>
       <r>  -24.5646    1.0000 </r>
       <r>  -12.6655    1.0000 </r>
       <r>  -12.3462    1.0000 </r>
       <r>   -9.4281    1.0000 </r>
       <r>   -9.1169    1.0000 </r>
       <r>   -7.2233    1.0000 </r>
       <r>   -6.8998    1.0000 </r>
       <r>   -1.2855    0.0000 </r>
       <r>   -0.8767    0.0000 </r>
       <r>    0.1587    0.0000 </r>
       <r>    0.3279    0.0000 </r>
      </set>
      <set comment="kpoint 2">
       <r>  -24.8566    1.0000 </r>
       <r>  -24.5646    1.0000 </r>
       <r>  -12.6655    1.0000 </r>
       <r>  -12.3462    1.0000 </r>
       <r>   -9.4281    1.0000 </r>
       <r>   -9.1169    1.0000 </r>
       <r>   -7.2233    1.0000 </r>
       <r>   -6.8998    1.0000 </r>
       <r>   -1.2855    0.0000 </r>
       <r>   -0.8767    0.0000 </r>
       <r>    0.1590    0.0000 </r>
       <r>    0.3216    0.0000 </r>
      </set>
     </set>
    </set>
   </array>
  </eigenvalues>
  <separator name="orbital magnetization" >
   <v name="MAGDIPOLOUT">      0.00000000      0.00000000      0.00000000</v>
  </separator>
  <dos>
   <i name="efermi">     -6.61983491 </i>
   <total>
    <array>
     <dimension dim="1">gridpoints</dimension>
     <dimension dim="2">spin</dimension>
     <field>energy</field>
     <field>total</field>
     <field>integrated</field>
     <set>
      <set comment="spin 1">
       <r>   -26.1158     0.0000     0.0000 </r>
       <r>   -26.0234     0.0000     0.0000 </r>
       <r>   -25.9311     0.0000     0.0000 </r>
       <r>   -25.8387     0.0000     0.0000 </r>
       <r>   -25.7464     0.0000     0.0000 </r>
       <r>   -25.6541     0.0000     0.0000 </r>
       <r>   -25.5617     0.0000     0.0000 </r>
       <r>   -25.4694     0.0000     0.0000 </r>
       <r>   -25.3770     0.0000     0.0000 </r>
       <r>   -25.2847     0.0000     0.0000 </r>
       <r>   -25.1923     0.0000     0.0000 </r>
       <r>   -25.1000     0.0000     0.0000 </r>
       <r>   -25.0077     0.0002     0.0000 </r>
       <r>   -24.9153     1.0447     0.0965 </r>
       <r>   -24.8230    16.9073     1.6578 </r>
       <r>   -24.7306     3.7021     1.9996 </r>
       <r>   -24.6383     0.4074     2.0373 </r>
       <r>   -24.5459    14.7913     3.4031 </r>
       <r>   -24.4536     6.4454     3.9983 </r>
       <r>   -24.3613     0.0182     4.0000 </r>
       <r>   -24.2689     0.0000     4.0000 </r>
       <r>   -24.1766     0.0000     4.0000 </r>
       <r>   -24.0842     0.0000     4.0000 </r>
       <r>   -23.9919     0.0000     4.0000 </r>
       <r>   -23.8995     0.0000     4.0000 </r>
       <r>   -23.8072     0.0000     4.0000 </r>
       <r>   -23.7149     0.0000     4.0000 </r>
       <r>   -23.6225     0.0000     4.0000 </r>
       <r>   -23.5302     0.0000     4.0000 </r>
       <r>   -23.4378     0.0000     4.0000 </r>
       <r>   -23.3455     0.0000     4.0000 </r>
       <r>   -23.2531     0.0000     4.0000 </r>
       <r>   -23.1608     0.0000     4.0000 </r>
       <r>   -23.0685     0.0000     4.0000 </r>
       <r>   -22.9761     0.0000     4.0000 </r>
       <r>   -22.8838     0.0000     4.0000 </r>
       <r>   -22.7914     0.0000     4.0000 </r>
       <r>   -22.6991     0.0000     4.0000 </r>
       <r>   -22.6067     0.0000     4.0000 </r>
       <r>   -22.5144     0.0000     4.0000 </r>
       <r>   -22.4221     0.0000     4.0000 </r>
       <r>   -22.3297     0.0000     4.0000 </r>
       <r>   -22.2374     0.0000     4.0000 </r>
       <r>   -22.1450     0.0000     4.0000 </r>
       <r>   -22.0527     0.0000     4.0000 </r>
       <r>   -21.9603     0.0000     4.0000 </r>
       <r>   -21.8680     0.0000     4.0000 </r>
       <r>   -21.7756     0.0000     4.0000 </r>
       <r>   -21.6833     0.0000     4.0000 </r>
       <r>   -21.5910     0.0000     4.0000 </r>
       <r>   -21.4986     0.0000     4.0000 </r>
       <r>   -21.4063     0.0000     4.0000 </r>
       <r>   -21.3139     0.0000     4.0000 </r>
       <r>   -21.2216     0.0000     4.0000 </r>
       <r>   -21.1292     0.0000     4.0000 </r>
       <r>   -21.0369     0.0000     4.0000 </r>
       <r>   -20.9446     0.0000     4.0000 </r>
       <r>   -20.8522     0.0000     4.0000 </r>
       <r>   -20.7599     0.0000     4.0000 </r>
       <r>   -20.6675     0.0000     4.0000 </r>
       <r>   -20.5752     0.0000     4.0000 </r>
       <r>   -20.4828     0.0000     4.0000 </r>
       <r>   -20.3905     0.0000     4.0000 </r>
       <r>   -20.2982     0.0000     4.0000 </r>
       <r>   -20.2058     0.0000     4.0000 </r>
       <r>   -20.1135     0.0000     4.0000 </r>
       <r>   -20.0211     0.0000     4.0000 </r>
       <r>   -19.9288     0.0000     4.0000 </r>
       <r>   -19.8364     0.0000     4.0000 </r>
       <r>   -19.7441     0.0000     4.0000 </r>
       <r>   -19.6518     0.0000     4.0000 </r>
       <r>   -19.5594     0.0000     4.0000 </r>
       <r>   -19.4671     0.0000     4.0000 </r>
       <r>   -19.3747     0.0000     4.0000 </r>
       <r>   -19.2824     0.0000     4.0000 </r>
       <r>   -19.1900     0.0000     4.0000 </r>
       <r>   -19.0977     0.0000     4.0000 </r>
       <r>   -19.0054     0.0000     4.0000 </r>
       <r>   -18.9130     0.0000     4.0000 </r>
       <r>   -18.8207     0.0000     4.0000 </r>
       <r>   -18.7283     0.0000     4.0000 </r>
       <r>   -18.6360     0.0000     4.0000 </r>
       <r>   -18.5436     0.0000     4.0000 </r>
       <r>   -18.4513     0.0000     4.0000 </r>
       <r>   -18.3590     0.0000     4.0000 </r>
       <r>   -18.2666     0.0000     4.0000 </r>
       <r>   -18.1743     0.0000     4.0000 </r>
       <r>   -18.0819     0.0000     4.0000 </r>
       <r>   -17.9896     0.0000     4.0000 </r>
       <r>   -17.8972     0.0000     4.0000 </r>
       <r>   -17.8049     0.0000     4.0000 </r>
       <r>   -17.7126     0.0000     4.0000 </r>
       <r>   -17.6202     0.0000     4.0000 </r>
       <r>   -17.5279     0.0000     4.0000 </r>
       <r>   -17.4355     0.0000     4.0000 </r>
       <r>   -17.3432     0.0000     4.0000 </r>
       <r>   -17.2508     0.0000     4.0000 </r>
       <r>   -17.1585     0.0000     4.0000 </r>
       <r>   -17.0662     0.0000     4.0000 </r>
       <r>   -16.9738     0.0000     4.0000 </r>
       <r>   -16.8815     0.0000     4.0000 </r>
       <r>   -16.7891     0.0000     4.0000 </r>
       <r>   -16.6968     0.0000     4.0000 </r>
       <r>   -16.6044     0.0000     4.0000 </r>
       <r>   -16.5121     0.0000     4.0000 </r>
       <r>   -16.4197     0.0000     4.0000 </r>
       <r>   -16.3274     0.0000     4.0000 </r>
       <r>   -16.2351     0.0000     4.0000 </r>
       <r>   -16.1427     0.0000     4.0000 </r>
       <r>   -16.0504     0.0000     4.0000 </r>
       <r>   -15.9580     0.0000     4.0000 </r>
       <r>   -15.8657     0.0000     4.0000 </r>
       <r>   -15.7733     0.0000     4.0000 </r>
       <r>   -15.6810     0.0000     4.0000 </r>
       <r>   -15.5887     0.0000     4.0000 </r>
       <r>   -15.4963     0.0000     4.0000 </r>
       <r>   -15.4040     0.0000     4.0000 </r>
       <r>   -15.3116     0.0000     4.0000 </r>
       <r>   -15.2193     0.0000     4.0000 </r>
       <r>   -15.1269     0.0000     4.0000 </r>
       <r>   -15.0346     0.0000     4.0000 </r>
       <r>   -14.9423     0.0000     4.0000 </r>
       <r>   -14.8499     0.0000     4.0000 </r>
       <r>   -14.7576     0.0000     4.0000 </r>
       <r>   -14.6652     0.0000     4.0000 </r>
       <r>   -14.5729     0.0000     4.0000 </r>
       <r>   -14.4805     0.0000     4.0000 </r>
       <r>   -14.3882     0.0000     4.0000 </r>
       <r>   -14.2959     0.0000     4.0000 </r>
       <r>   -14.2035     0.0000     4.0000 </r>
       <r>   -14.1112     0.0000     4.0000 </r>
       <r>   -14.0188     0.0000     4.0000 </r>
       <r>   -13.9265     0.0000     4.0000 </r>
       <r>   -13.8341     0.0000     4.0000 </r>
       <r>   -13.7418     0.0000     4.0000 </r>
       <r>   -13.6495     0.0000     4.0000 </r>
       <r>   -13.5571     0.0000     4.0000 </r>
       <r>   -13.4648     0.0000     4.0000 </r>
       <r>   -13.3724     0.0000     4.0000 </r>
       <r>   -13.2801     0.0000     4.0000 </r>
       <r>   -13.1877     0.0000     4.0000 </r>
       <r>   -13.0954     0.0000     4.0000 </r>
       <r>   -13.0031     0.0000     4.0000 </r>
       <r>   -12.9107     0.0000     4.0000 </r>
       <r>   -12.8184     0.0002     4.0000 </r>
       <r>   -12.7260     0.9408     4.0869 </r>
       <r>   -12.6337    16.7300     5.6318 </r>
       <r>   -12.5413     3.9825     5.9996 </r>
       <r>   -12.4490     0.0442     6.0036 </r>
       <r>   -12.3567     8.2658     6.7669 </r>
       <r>   -12.2643    13.1303     7.9794 </r>
       <r>   -12.1720     0.2229     8.0000 </r>
       <r>   -12.0796     0.0000     8.0000 </r>
       <r>   -11.9873     0.0000     8.0000 </r>
       <r>   -11.8949     0.0000     8.0000 </r>
       <r>   -11.8026     0.0000     8.0000 </r>
       <r>   -11.7102     0.0000     8.0000 </r>
       <r>   -11.6179     0.0000     8.0000 </r>
       <r>   -11.5256     0.0000     8.0000 </r>
       <r>   -11.4332     0.0000     8.0000 </r>
       <r>   -11.3409     0.0000     8.0000 </r>
       <r>   -11.2485     0.0000     8.0000 </r>
       <r>   -11.1562     0.0000     8.0000 </r>
       <r>   -11.0638     0.0000     8.0000 </r>
       <r>   -10.9715     0.0000     8.0000 </r>
       <r>   -10.8792     0.0000     8.0000 </r>
       <r>   -10.7868     0.0000     8.0000 </r>
       <r>   -10.6945     0.0000     8.0000 </r>
       <r>   -10.6021     0.0000     8.0000 </r>
       <r>   -10.5098     0.0000     8.0000 </r>
       <r>   -10.4174     0.0000     8.0000 </r>
       <r>   -10.3251     0.0000     8.0000 </r>
       <r>   -10.2328     0.0000     8.0000 </r>
       <r>   -10.1404     0.0000     8.0000 </r>
       <r>   -10.0481     0.0000     8.0000 </r>
       <r>    -9.9557     0.0000     8.0000 </r>
       <r>    -9.8634     0.0000     8.0000 </r>
       <r>    -9.7710     0.0000     8.0000 </r>
       <r>    -9.6787     0.0000     8.0000 </r>
       <r>    -9.5864     0.0001     8.0000 </r>
       <r>    -9.4940     0.6734     8.0622 </r>
       <r>    -9.4017    16.0564     9.5449 </r>
       <r>    -9.3093     4.9200     9.9992 </r>
       <r>    -9.2170     0.0590    10.0047 </r>
       <r>    -9.1246     8.9134    10.8278 </r>
       <r>    -9.0323    12.5141    11.9833 </r>
       <r>    -8.9400     0.1803    12.0000 </r>
       <r>    -8.8476     0.0000    12.0000 </r>
       <r>    -8.7553     0.0000    12.0000 </r>
       <r>    -8.6629     0.0000    12.0000 </r>
       <r>    -8.5706     0.0000    12.0000 </r>
       <r>    -8.4782     0.0000    12.0000 </r>
       <r>    -8.3859     0.0000    12.0000 </r>
       <r>    -8.2936     0.0000    12.0000 </r>
       <r>    -8.2012     0.0000    12.0000 </r>
       <r>    -8.1089     0.0000    12.0000 </r>
       <r>    -8.0165     0.0000    12.0000 </r>
       <r>    -7.9242     0.0000    12.0000 </r>
       <r>    -7.8318     0.0000    12.0000 </r>
       <r>    -7.7395     0.0000    12.0000 </r>
       <r>    -7.6472     0.0000    12.0000 </r>
       <r>    -7.5548     0.0000    12.0000 </r>
       <r>    -7.4625     0.0000    12.0000 </r>
       <r>    -7.3701     0.0004    12.0000 </r>
       <r>    -7.2778     1.3376    12.1235 </r>
       <r>    -7.1854    17.2470    13.7162 </r>
       <r>    -7.0931     3.0709    13.9998 </r>
       <r>    -7.0008     0.0491    14.0043 </r>
       <r>    -6.9084     8.7035    14.8080 </r>
       <r>    -6.8161    12.7150    15.9822 </r>
       <r>    -6.7237     0.1932    16.0000 </r>
       <r>    -6.6314     0.0000    16.0000 </r>
       <r>    -6.5390     0.0000    16.0000 </r>
       <r>    -6.4467     0.0000    16.0000 </r>
       <r>    -6.3543     0.0000    16.0000 </r>
       <r>    -6.2620     0.0000    16.0000 </r>
       <r>    -6.1697     0.0000    16.0000 </r>
       <r>    -6.0773     0.0000    16.0000 </r>
       <r>    -5.9850     0.0000    16.0000 </r>
       <r>    -5.8926     0.0000    16.0000 </r>
       <r>    -5.8003     0.0000    16.0000 </r>
       <r>    -5.7079     0.0000    16.0000 </r>
       <r>    -5.6156     0.0000    16.0000 </r>
       <r>    -5.5233     0.0000    16.0000 </r>
       <r>    -5.4309     0.0000    16.0000 </r>
       <r>    -5.3386     0.0000    16.0000 </r>
       <r>    -5.2462     0.0000    16.0000 </r>
       <r>    -5.1539     0.0000    16.0000 </r>
       <r>    -5.0615     0.0000    16.0000 </r>
       <r>    -4.9692     0.0000    16.0000 </r>
       <r>    -4.8769     0.0000    16.0000 </r>
       <r>    -4.7845     0.0000    16.0000 </r>
       <r>    -4.6922     0.0000    16.0000 </r>
       <r>    -4.5998     0.0000    16.0000 </r>
       <r>    -4.5075     0.0000    16.0000 </r>
       <r>    -4.4151     0.0000    16.0000 </r>
       <r>    -4.3228     0.0000    16.0000 </r>
       <r>    -4.2305     0.0000    16.0000 </r>
       <r>    -4.1381     0.0000    16.0000 </r>
       <r>    -4.0458     0.0000    16.0000 </r>
       <r>    -3.9534     0.0000    16.0000 </r>
       <r>    -3.8611     0.0000    16.0000 </r>
       <r>    -3.7687     0.0000    16.0000 </r>
       <r>    -3.6764     0.0000    16.0000 </r>
       <r>    -3.5841     0.0000    16.0000 </r>
       <r>    -3.4917     0.0000    16.0000 </r>
       <r>    -3.3994     0.0000    16.0000 </r>
       <r>    -3.3070     0.0000    16.0000 </r>
       <r>    -3.2147     0.0000    16.0000 </r>
       <r>    -3.1223     0.0000    16.0000 </r>
       <r>    -3.0300     0.0000    16.0000 </r>
       <r>    -2.9377     0.0000    16.0000 </r>
       <r>    -2.8453     0.0000    16.0000 </r>
       <r>    -2.7530     0.0000    16.0000 </r>
       <r>    -2.6606     0.0000    16.0000 </r>
       <r>    -2.5683     0.0000    16.0000 </r>
       <r>    -2.4759     0.0000    16.0000 </r>
       <r>    -2.3836     0.0000    16.0000 </r>
       <r>    -2.2913     0.0000    16.0000 </r>
       <r>    -2.1989     0.0000    16.0000 </r>
       <r>    -2.1066     0.0000    16.0000 </r>
       <r>    -2.0142     0.0000    16.0000 </r>
       <r>    -1.9219     0.0000    16.0000 </r>
       <r>    -1.8295     0.0000    16.0000 </r>
       <r>    -1.7372     0.0000    16.0000 </r>
       <r>    -1.6448     0.0000    16.0000 </r>
       <r>    -1.5525     0.0000    16.0000 </r>
       <r>    -1.4602     0.0000    16.0000 </r>
       <r>    -1.3678     0.2162    16.0200 </r>
       <r>    -1.2755    13.0411    17.2242 </r>
       <r>    -1.1831     8.3602    17.9962 </r>
       <r>    -1.0908     0.0408    18.0000 </r>
       <r>    -0.9984     0.0062    18.0006 </r>
       <r>    -0.9061     4.3796    18.4050 </r>
       <r>    -0.8138    16.4580    19.9248 </r>
       <r>    -0.7214     0.8144    20.0000 </r>
       <r>    -0.6291     0.0001    20.0000 </r>
       <r>    -0.5367     0.0000    20.0000 </r>
       <r>    -0.4444     0.0000    20.0000 </r>
       <r>    -0.3520     0.0000    20.0000 </r>
       <r>    -0.2597     0.0000    20.0000 </r>
       <r>    -0.1674     0.0000    20.0000 </r>
       <r>    -0.0750     0.0000    20.0000 </r>
       <r>     0.0173     0.0007    20.0001 </r>
       <r>     0.1097     1.7761    20.1641 </r>
       <r>     0.2020    17.4797    21.7782 </r>
       <r>     0.2944     6.6428    22.3916 </r>
       <r>     0.3867    16.5402    23.9190 </r>
       <r>     0.4790     0.8770    24.0000 </r>
       <r>     0.5714     0.0001    24.0000 </r>
       <r>     0.6637     0.0000    24.0000 </r>
       <r>     0.7561     0.0000    24.0000 </r>
       <r>     0.8484     0.0000    24.0000 </r>
       <r>     0.9408     0.0000    24.0000 </r>
       <r>     1.0331     0.0000    24.0000 </r>
       <r>     1.1254     0.0000    24.0000 </r>
       <r>     1.2178     0.0000    24.0000 </r>
       <r>     1.3101     0.0000    24.0000 </r>
       <r>     1.4025     0.0000    24.0000 </r>
       <r>     1.4948     0.0000    24.0000 </r>
       <r>     1.5872     0.0000    24.0000 </r>
      </set>
     </set>
    </array>
   </total>
  </dos>
 </calculation>
 <structure name="finalpos" >
  <crystal>
   <varray name="basis" >
    <v>      30.00000000       0.00000000       0.00000000 </v>
    <v>       0.00000000      10.00000000       0.00000000 </v>
    <v>       0.00000000       0.00000000      10.00000000 </v>
   </varray>
   <i name="volume">   3000.00000000 </i>
   <varray name="rec_basis" >
    <v>       0.03333333       0.00000000       0.00000000 </v>
    <v>       0.00000000       0.10000000       0.00000000 </v>
    <v>       0.00000000       0.00000000       0.10000000 </v>
   </varray>
  </crystal>
  <varray name="positions" >
   <v>       0.15520229       0.15710957       0.17600000 </v>
   <v>       0.95513104       0.15710957       0.17600000 </v>
   <v>       0.16587747       0.25541218       0.17439231 </v>
   <v>       0.12180589       0.16672783       0.17649328 </v>
   <v>       0.94612303       0.09941802       0.25610440 </v>
   <v>       0.94624850       0.09907990       0.09607226 </v>
  </varray>
 </structure>
</modeling>
