
     Program PWSCF v.5.4.0 starts on 22Sep2019 at 19:17:10 

     This program is part of the open-source Quantum ESPRESSO suite
     for quantum simulation of materials; please cite
         "P. Giannozzi et al., J. Phys.:Condens. Matter 21 395502 (2009);
          URL http://www.quantum-espresso.org", 
     in publications or presentations arising from this work. More details at
     http://www.quantum-espresso.org/quote

           HOST :    @host@
           ARCH :    
             CC :    cc
            CPP :    cpp
            F90 :    mpif90
            F77 :    gfortran
         DFLAGS :    -D__GFORTRAN -D__STD_F95 -D__FFTW3 -D__MPI -D__PARA
      BLAS LIBS :    -lopenblas
    LAPACK LIBS :    -lopenblas
       FFT LIBS :    -lfftw3
      MASS LIBS :    

     Parallel version (MPI), running on    28 processors
     R & G space division:  proc/nbgrp/npool/nimage =      28
     Waiting for input...
     Reading input from standard input
Warning: card &IONS ignored
Warning: card / ignored
Warning: card &CELL ignored
Warning: card / ignored

     Current dimensions of program PWSCF are:
     Max number of different atomic species (ntypx) = 10
     Max number of k-points (npk) =  40000
     Max angular momentum in pseudopotentials (lmaxx) =  3

     IMPORTANT: XC functional enforced from input :
     Exchange-correlation      = PBE ( 1  4  3  4 0 0)
     Any further DFT definition will be discarded
     Please, verify this is what you really want


     gamma-point specific algorithms are used

     Subspace diagonalization in iterative solution of the eigenvalue problem:
     a serial algorithm will be used


     Parallelization info
     --------------------
     sticks:   dense  smooth     PW     G-vecs:    dense   smooth      PW
     Min         445     445    110                37558    37558    4694
     Max         448     448    112                37564    37564    4708
     Sum       12517   12517   3125              1051747  1051747  131683
     Tot        6259    6259   1563



     bravais-lattice index     =            1
     lattice parameter (alat)  =      18.8973  a.u.
     unit-cell volume          =    6748.3346 (a.u.)^3
     number of atoms/cell      =            5
     number of atomic types    =            2
     number of electrons       =         8.00
     number of Kohn-Sham states=            4
     kinetic-energy cutoff     =     110.0000  Ry
     charge density cutoff     =     440.0000  Ry
     convergence threshold     =      1.0E-06
     mixing beta               =       0.5000
     number of iterations used =            8  plain     mixing
     Exchange-correlation      = PBE ( 1  4  3  4 0 0)

     celldm(1)=  18.897261  celldm(2)=   0.000000  celldm(3)=   0.000000
     celldm(4)=   0.000000  celldm(5)=   0.000000  celldm(6)=   0.000000

     crystal axes: (cart. coord. in units of alat)
               a(1) = (   1.000000   0.000000   0.000000 )  
               a(2) = (   0.000000   1.000000   0.000000 )  
               a(3) = (   0.000000   0.000000   1.000000 )  

     reciprocal axes: (cart. coord. in units 2 pi/alat)
               b(1) = (  1.000000  0.000000  0.000000 )  
               b(2) = (  0.000000  1.000000  0.000000 )  
               b(3) = (  0.000000  0.000000  1.000000 )  


     PseudoPot. # 1 for  H read from file:
     ../pseudo/H.tm.pbe.UPF
     MD5 check sum: 4b614d66af87240b7a5107bfa527a767
     Pseudo is Norm-conserving, Zval =  1.0
     Generated using "atomic" code by A. Dal Corso  v.5.2.0
     Using radial grid of  929 points,  0 beta functions with: 

     PseudoPot. # 2 for  C read from file:
     ../pseudo/C.tm.pbe.UPF
     MD5 check sum: a4f27fcb9b24331b00ace8e732a7e062
     Pseudo is Norm-conserving, Zval =  4.0
     Generated using "atomic" code by A. Dal Corso  v.5.2.0
     Using radial grid of 1073 points,  1 beta functions with: 
                l(1) =   1

     atomic species   valence    mass     pseudopotential
        H              1.00     1.00000      H( 1.00)
        C              4.00     1.00000      C( 1.00)

     No symmetry found



   Cartesian axes

     site n.     atom                  positions (alat units)
         1           H   tau(   1) = (   0.5435860   0.4112200   0.3461520  )
         2           H   tau(   2) = (   0.4100930   0.4857970   0.4320620  )
         3           H   tau(   3) = (   0.5678200   0.5681670   0.4380250  )
         4           H   tau(   4) = (   0.5429840   0.4124840   0.5247140  )
         5           C   tau(   5) = (   0.5170870   0.4701100   0.4370300  )

     number of k points=     1
                       cart. coord. in units 2pi/alat
        k(    1) = (   0.0000000   0.0000000   0.0000000), wk =   2.0000000

     Dense  grid:   525874 G-vectors     FFT dimensions: ( 128, 128, 128)

     Largest allocated arrays     est. size (Mb)     dimensions
        Kohn-Sham Wavefunctions         0.14 Mb     (    2354,    4)
        NL pseudopotentials             0.11 Mb     (    2354,    3)
        Each V/rho on FFT grid          1.25 Mb     (   81920)
        Each G-vector array             0.14 Mb     (   18782)
        G-vector shells                 0.02 Mb     (    2785)
     Largest temporary arrays     est. size (Mb)     dimensions
        Auxiliary wavefunctions         0.29 Mb     (    2354,   16)
        Each subspace H/S matrix        0.00 Mb     (      16,   16)
        Each <psi_i|beta_j> matrix      0.00 Mb     (       3,    4)
        Arrays for rho mixing          10.00 Mb     (   81920,    8)

     Initial potential from superposition of free atoms
     Check: negative starting charge=   -0.000386

     starting charge    7.99992, renormalised to    8.00000

     negative rho (up, down):  3.861E-04 0.000E+00
     Starting wfc are    8 randomized atomic wfcs

     total cpu time spent up to now is       10.2 secs

     per-process dynamical memory:   430.7 Mb

     Self-consistent Calculation

     iteration #  1     ecut=   110.00 Ry     beta=0.50
     Davidson diagonalization with overlap
     ethr =  1.00E-02,  avg # of iterations =  2.0

     negative rho (up, down):  1.823E-04 0.000E+00

     total cpu time spent up to now is       10.7 secs

     total energy              =     -16.01968397 Ry
     Harris-Foulkes estimate   =     -16.41104114 Ry
     estimated scf accuracy    <       0.69532073 Ry

     iteration #  2     ecut=   110.00 Ry     beta=0.50
     Davidson diagonalization with overlap
     ethr =  8.69E-03,  avg # of iterations =  2.0

     negative rho (up, down):  9.542E-05 0.000E+00

     total cpu time spent up to now is       11.1 secs

     total energy              =     -16.15303893 Ry
     Harris-Foulkes estimate   =     -16.17213296 Ry
     estimated scf accuracy    <       0.04978457 Ry

     iteration #  3     ecut=   110.00 Ry     beta=0.50
     Davidson diagonalization with overlap
     ethr =  6.22E-04,  avg # of iterations =  1.0

     negative rho (up, down):  5.056E-06 0.000E+00

     total cpu time spent up to now is       11.5 secs

     total energy              =     -16.15126140 Ry
     Harris-Foulkes estimate   =     -16.15671440 Ry
     estimated scf accuracy    <       0.01145583 Ry

     iteration #  4     ecut=   110.00 Ry     beta=0.50
     Davidson diagonalization with overlap
     ethr =  1.43E-04,  avg # of iterations =  2.0

     negative rho (up, down):  4.928E-06 0.000E+00

     total cpu time spent up to now is       12.1 secs

     total energy              =     -16.15318343 Ry
     Harris-Foulkes estimate   =     -16.15535300 Ry
     estimated scf accuracy    <       0.00503671 Ry

     iteration #  5     ecut=   110.00 Ry     beta=0.50
     Davidson diagonalization with overlap
     ethr =  6.30E-05,  avg # of iterations =  1.0

     negative rho (up, down):  1.681E-06 0.000E+00

     total cpu time spent up to now is       12.5 secs

     total energy              =     -16.15337509 Ry
     Harris-Foulkes estimate   =     -16.15360022 Ry
     estimated scf accuracy    <       0.00040346 Ry

     iteration #  6     ecut=   110.00 Ry     beta=0.50
     Davidson diagonalization with overlap
     ethr =  5.04E-06,  avg # of iterations =  3.0

     negative rho (up, down):  1.651E-08 0.000E+00

     total cpu time spent up to now is       12.9 secs

     total energy              =     -16.15360646 Ry
     Harris-Foulkes estimate   =     -16.15366352 Ry
     estimated scf accuracy    <       0.00012890 Ry

     iteration #  7     ecut=   110.00 Ry     beta=0.50
     Davidson diagonalization with overlap
     ethr =  1.61E-06,  avg # of iterations =  2.0

     total cpu time spent up to now is       13.4 secs

     total energy              =     -16.15362494 Ry
     Harris-Foulkes estimate   =     -16.15362560 Ry
     estimated scf accuracy    <       0.00000273 Ry

     iteration #  8     ecut=   110.00 Ry     beta=0.50
     Davidson diagonalization with overlap
     ethr =  3.42E-08,  avg # of iterations =  1.0

     total cpu time spent up to now is       13.8 secs

     total energy              =     -16.15362472 Ry
     Harris-Foulkes estimate   =     -16.15362509 Ry
     estimated scf accuracy    <       0.00000137 Ry

     iteration #  9     ecut=   110.00 Ry     beta=0.50
     Davidson diagonalization with overlap
     ethr =  1.71E-08,  avg # of iterations =  1.0

     total cpu time spent up to now is       14.3 secs

     End of self-consistent calculation

          k = 0.0000 0.0000 0.0000 ( 65842 PWs)   bands (ev):

   -16.8365  -9.3900  -9.3160  -9.0535

     highest occupied level (ev):    -9.0535

!    total energy              =     -16.15362461 Ry
     Harris-Foulkes estimate   =     -16.15362483 Ry
     estimated scf accuracy    <       0.00000031 Ry

     The total energy is the sum of the following terms:

     one-electron contribution =     -40.24382796 Ry
     hartree contribution      =      20.94773719 Ry
     xc contribution           =      -6.34406488 Ry
     ewald contribution        =       9.48653104 Ry

     convergence has been achieved in   9 iterations

     Forces acting on atoms (Ry/au):

     atom    1 type  1   force =     0.00420990    0.01528100    0.01644264
     atom    2 type  1   force =    -0.01951255    0.00441168    0.00651430
     atom    3 type  1   force =    -0.00105444   -0.01221097   -0.00245065
     atom    4 type  1   force =     0.00399026   -0.00776562    0.01731474
     atom    5 type  2   force =     0.01236684    0.00028391   -0.03782102

     Total force =     0.055497     Total SCF correction =     0.000332


     entering subroutine stress ...

          total   stress  (Ry/bohr**3)                   (kbar)     P=   -0.20
   0.00000433  -0.00000249   0.00000018          0.64     -0.37      0.03
  -0.00000249  -0.00000640  -0.00000589         -0.37     -0.94     -0.87
   0.00000018  -0.00000589  -0.00000200          0.03     -0.87     -0.29


     init_run     :      2.49s CPU      2.50s WALL (       1 calls)
     electrons    :      3.97s CPU      4.04s WALL (       1 calls)
     forces       :      0.90s CPU      0.90s WALL (       1 calls)
     stress       :      1.10s CPU      1.11s WALL (       1 calls)

     Called by init_run:
     wfcinit      :      0.20s CPU      0.20s WALL (       1 calls)
     potinit      :      0.95s CPU      0.95s WALL (       1 calls)

     Called by electrons:
     c_bands      :      1.49s CPU      1.50s WALL (       9 calls)
     sum_band     :      0.49s CPU      0.49s WALL (       9 calls)
     v_of_rho     :      1.93s CPU      1.99s WALL (      10 calls)
     mix_rho      :      0.25s CPU      0.25s WALL (       9 calls)

     Called by c_bands:
     init_us_2    :      0.04s CPU      0.05s WALL (      19 calls)
     regterg      :      1.45s CPU      1.47s WALL (       9 calls)

     Called by sum_band:

     Called by *egterg:
     h_psi        :      1.59s CPU      1.61s WALL (      25 calls)
     g_psi        :      0.01s CPU      0.01s WALL (      15 calls)
     rdiaghg      :      0.00s CPU      0.00s WALL (      24 calls)

     Called by h_psi:
     add_vuspsi   :      0.00s CPU      0.00s WALL (      25 calls)

     General routines
     calbec       :      0.38s CPU      0.38s WALL (      30 calls)
     fft          :      1.84s CPU      1.90s WALL (     117 calls)
     fftw         :      1.24s CPU      1.26s WALL (     122 calls)

     Parallel routines
     fft_scatter  :      1.27s CPU      1.33s WALL (     239 calls)

     PWSCF        :    15.87s CPU        16.34s WALL


   This run was terminated on:  19:17:26  22Sep2019            

=------------------------------------------------------------------------------=
   JOB DONE.
=------------------------------------------------------------------------------=
