-7.177459999999999951e-01 2.467246999999999968e+00 -3.082100000000000117e-02 -1.067409000000000052e+00 -2.328688000000000091e+00 1.511799999999999949e-02 -8.102460000000000218e-01 -2.365371000000000112e+00 3.894700000000000245e-02 1.513149000000000077e+00 -1.014270000000000033e-01 -8.149999999999999259e-03 5.470829999999999860e-01 1.164662000000000086e+00 -1.728582999999999981e+00 5.351700000000000346e-01 1.163577000000000083e+00 1.713489999999999958e+00
