3.112740039825439453e+00 1.251043033599853516e+01 9.841529846191406250e+00 3.632359981536865234e+00 1.432319998741149902e+00 1.416162967681884766e+01 1.075883007049560547e+01 6.356629848480224609e+00 1.697110056877136230e+00 8.578260421752929688e+00 7.857170104980468750e+00 1.142022991180419922e+01 7.543210029602050781e+00 8.951430320739746094e+00 1.226899996399879456e-01 6.344409942626953125e+00 1.227153015136718750e+01 8.534469604492187500e+00 2.061460018157958984e+00 1.366340041160583496e+00 1.167372989654541016e+01 9.347940444946289062e+00 1.768479943275451660e+00 8.883520126342773438e+00 1.064783000946044922e+01 1.278522968292236328e+01 3.882240056991577148e+00 4.709159851074218750e+00 4.770579814910888672e+00 8.104400038719177246e-01 4.128550052642822266e+00 7.971610069274902344e+00 1.450782966613769531e+01 6.833819866180419922e+00 1.217103004455566406e+01 2.450860023498535156e+00 5.634039878845214844e+00 6.908880233764648438e+00 7.305970191955566406e+00 6.869949817657470703e+00 9.817699790000915527e-01 1.039692974090576172e+01 2.770099937915802002e-01 7.826799750328063965e-01 3.182039976119995117e+00 1.149143028259277344e+01 1.163282966613769531e+01 9.617329597473144531e+00 6.978059768676757812e+00 9.407690048217773438e+00 3.551860094070434570e+00 3.089230060577392578e+00 1.422723007202148438e+01 7.661369800567626953e+00 1.484820008277893066e+00 3.231120109558105469e+00 8.958049774169921875e+00 4.928750038146972656e+00 4.826990127563476562e+00 1.016872978210449219e+01 9.779129981994628906e+00 1.380543041229248047e+01 1.283743000030517578e+01 1.143883037567138672e+01 6.636789798736572266e+00 1.113082981109619141e+01 1.038323020935058594e+01 3.922420024871826172e+00 7.334750175476074219e+00 1.305873012542724609e+01 1.392613029479980469e+01 1.062839984893798828e+00 5.246630191802978516e+00 1.421012973785400391e+01 1.053740024566650391e+00 8.096389770507812500e+00 1.099013042449951172e+01 1.181142997741699219e+01 1.826939940452575684e+00 3.794199943542480469e+00 1.173573017120361328e+01 5.374569892883300781e+00 1.332299947738647461e+00 7.938059806823730469e+00 1.281542968750000000e+01 7.589759826660156250e+00 9.110850334167480469e+00 9.065950393676757812e+00 7.528230190277099609e+00 8.560930252075195312e+00 1.056513023376464844e+01 1.391423034667968750e+01 6.924419879913330078e+00 1.326583003997802734e+01 9.859530448913574219e+00 4.001760005950927734e+00 2.755700051784515381e-01 4.005790233612060547e+00 5.938230037689208984e+00 7.000400066375732422e+00 1.067280054092407227e+00 2.896739959716796875e+00 1.263823032379150391e+01 6.399859905242919922e+00 1.357973003387451172e+01 1.119192981719970703e+01 6.347899913787841797e+00 7.491340160369873047e+00 1.045063018798828125e+01 1.422093009948730469e+01 1.019583034515380859e+01 1.143962955474853516e+01 9.347180366516113281e+00 7.700580120086669922e+00 3.755699992179870605e-01 2.359760046005249023e+00 5.962999910116195679e-02 1.937780022621154785e+00 8.915909767150878906e+00 1.158952999114990234e+01 9.586030006408691406e+00 9.687829971313476562e+00 2.194619894027709961e+00 1.374483013153076172e+01 1.093653011322021484e+01 1.398902988433837891e+01 1.105299949645996094e+00 7.354800105094909668e-01 9.183449745178222656e+00 2.527329921722412109e+00 9.328669548034667969e+00 2.401459932327270508e+00 3.968549966812133789e+00 1.009132957458496094e+01 1.066423034667968750e+01 3.962830066680908203e+00 3.414520025253295898e+00 7.929560184478759766e+00 3.630739927291870117e+00 5.649640083312988281e+00 6.100409984588623047e+00 9.392600059509277344e+00 1.239593029022216797e+01 1.173830032348632812e+00 2.088320016860961914e+00 1.409523010253906250e+01 1.350929975509643555e+00 1.458903026580810547e+01 9.386949539184570312e+00 9.774330139160156250e+00 6.842420101165771484e+00 4.770289897918701172e+00 4.339759826660156250e+00 1.210282993316650391e+01 8.943550109863281250e+00 1.224320054054260254e+00 2.880340099334716797e+00 1.277412986755371094e+01 1.397142982482910156e+01 7.071869850158691406e+00 6.400330066680908203e+00 1.446949958801269531e+00 6.530519962310791016e+00 1.306663036346435547e+01 1.108952999114990234e+01 7.753739833831787109e+00 2.431770086288452148e+00 1.290563011169433594e+01 4.143680095672607422e+00 2.982499897480010986e-01 3.517309904098510742e+00 1.008162975311279297e+01 3.937599956989288330e-01 2.112270116806030273e+00 5.135409832000732422e+00 1.139573001861572266e+01 5.050859928131103516e+00 7.328259944915771484e+00 3.235980033874511719e+00 6.461780071258544922e+00 1.128433036804199219e+01 9.621529579162597656e+00 1.172982978820800781e+01 1.234883022308349609e+01 1.374860048294067383e+00 1.382162952423095703e+01 9.861530303955078125e+00 3.766030073165893555e+00 2.226530075073242188e+00 3.056659936904907227e+00 1.196963024139404297e+01 3.046629905700683594e+00 1.252682971954345703e+01 1.141252994537353516e+01 6.118010044097900391e+00 1.699049949645996094e+00 5.062699794769287109e+00 2.121659994125366211e+00 8.365610122680664062e+00 7.103290081024169922e+00 3.710550069808959961e+00 1.003713035583496094e+01 4.485829830169677734e+00 1.007693004608154297e+01 1.381272983551025391e+01 8.801779747009277344e+00 1.250282955169677734e+01 1.265122985839843750e+01 3.214679956436157227e+00 8.861650466918945312e+00 1.011293029785156250e+01 1.089663028717041016e+01 1.373723030090332031e+01 2.309429883956909180e+00 6.840539932250976562e+00 1.026933002471923828e+01 6.060579776763916016e+00 9.733530044555664062e+00 1.238712978363037109e+01 1.425772953033447266e+01 5.277100086212158203e+00 8.808699607849121094e+00 6.462470054626464844e+00 5.999060153961181641e+00 1.187843036651611328e+01 1.345053005218505859e+01 3.396339893341064453e+00 3.649749994277954102e+00 1.186172962188720703e+01 3.947010040283203125e+00 5.045300126075744629e-01 7.292580127716064453e+00 5.209519863128662109e+00 8.537779808044433594e+00 9.473900198936462402e-01 1.197132968902587891e+01 1.187143039703369141e+01 1.288432979583740234e+01 7.768800258636474609e-01 1.118132972717285156e+01 3.814300060272216797e+00 5.360990047454833984e+00 1.301233005523681641e+01 8.548270225524902344e+00 4.968009948730468750e+00 1.363012981414794922e+01 1.562669992446899414e+00 6.794040203094482422e+00 4.334000110626220703e+00 4.705289840698242188e+00 2.441319942474365234e+00 1.184253025054931641e+01 2.441169977188110352e+00 2.461730003356933594e+00 1.872760057449340820e+00 1.119933032989501953e+01 4.659550189971923828e+00 4.449289798736572266e+00 1.187143039703369141e+01 1.155183029174804688e+01 1.812139987945556641e+00 7.335179805755615234e+00 9.907930374145507812e+00 9.178979873657226562e+00 4.132929801940917969e+00 5.255569934844970703e+00 3.490560054779052734e+00 7.045239925384521484e+00 9.291090011596679688e+00 6.373740196228027344e+00 6.976009845733642578e+00 3.710969924926757812e+00 1.889770030975341797e+00 1.232872962951660156e+01 7.442080020904541016e+00 4.797969818115234375e+00 1.753000020980834961e-01 1.414323043823242188e+01 1.308963012695312500e+01 5.490449905395507812e+00 7.901750087738037109e+00 9.719630241394042969e+00 1.347852993011474609e+01 6.156199932098388672e+00 2.889280080795288086e+00 1.164873027801513672e+01 1.383820056915283203e+00 4.181620121002197266e+00 4.728889942169189453e+00 2.265500068664550781e+00 5.152219772338867188e+00 5.220930099487304688e+00 1.104353046417236328e+01 3.240100145339965820e-01 1.878800034523010254e+00 1.427663040161132812e+01 5.369569778442382812e+00 7.282000035047531128e-02 7.039229869842529297e+00 7.017360210418701172e+00 7.879469871520996094e+00 1.426863002777099609e+01 7.383800029754638672e+00 9.822930335998535156e+00 7.989620208740234375e+00 1.394943046569824219e+01 2.424949884414672852e+00 9.986129760742187500e+00 1.412802982330322266e+01 1.199939966201782227e+00 1.074773025512695312e+01 4.838349819183349609e+00 1.474709987640380859e+00 1.069643020629882812e+01 7.682350158691406250e+00 1.333603000640869141e+01 1.345823001861572266e+01 9.108039855957031250e+00 1.101303005218505859e+01 2.843029975891113281e+00 1.177462959289550781e+01 1.067149996757507324e+00 6.759980201721191406e+00 1.456412982940673828e+01 1.339373016357421875e+01 4.082680225372314453e+00 1.249633026123046875e+01 2.632200002670288086e+00 7.878640174865722656e+00 7.709340095520019531e+00 1.033499985933303833e-01 1.278742980957031250e+01 6.833879947662353516e+00 1.448703002929687500e+01 6.538219928741455078e+00 1.111073017120361328e+01 1.327933025360107422e+01 1.324092960357666016e+01 3.954519987106323242e+00 1.457985973358154297e+01 9.051349639892578125e+00 1.250830054283142090e+00 9.928629875183105469e+00 8.716950416564941406e+00 5.346409797668457031e+00 2.279580116271972656e+00 2.648560047149658203e+00 5.453310012817382812e+00 7.721730232238769531e+00 1.327733039855957031e+01 5.020850181579589844e+00 3.328919887542724609e+00 8.959170341491699219e+00 5.085790157318115234e+00 9.627229690551757812e+00 1.936929941177368164e+00 3.340000053867697716e-03 4.161680221557617188e+00 1.381573009490966797e+01 1.174032974243164062e+01 1.248812961578369141e+01 9.245600104331970215e-01 7.287809848785400391e+00 9.089699745178222656e+00 1.144452953338623047e+01 6.393949985504150391e+00 9.263299942016601562e+00 1.635020017623901367e+00 5.320940017700195312e+00 4.039629936218261719e+00 1.122093009948730469e+01 7.354320049285888672e+00 1.242413043975830078e+01 1.273322963714599609e+01 1.245053005218505859e+01 4.768060207366943359e+00 7.771920204162597656e+00 2.719170093536376953e+00 2.932899892330169678e-01 1.213372993469238281e+01 2.133019924163818359e+00 7.523359775543212891e+00 1.442292976379394531e+01 1.432312965393066406e+01 3.650520086288452148e+00 1.316833019256591797e+01 1.042012977600097656e+01 3.037569999694824219e+00 1.004629969596862793e+00 1.352882957458496094e+01 1.022472953796386719e+01 5.608679771423339844e+00 1.849320054054260254e+00 8.871979713439941406e+00 7.311069965362548828e+00 1.065482997894287109e+01 3.027630090713500977e+00 1.295942974090576172e+01 9.004679679870605469e+00 4.017320156097412109e+00 2.151410102844238281e+00 1.365802955627441406e+01 1.163842964172363281e+01 5.942029953002929688e+00 1.763270020484924316e+00 7.690040111541748047e+00 7.421160221099853516e+00 1.155113029479980469e+01 6.956339836120605469e+00 8.402720451354980469e+00 6.637399792671203613e-01 5.434569835662841797e+00 1.220913028717041016e+01 8.122030258178710938e+00 2.942250013351440430e+00 1.073429942131042480e+00 1.141092967987060547e+01 8.417460441589355469e+00 1.528990030288696289e+00 8.995039939880371094e+00 8.246749877929687500e+00 8.296250343322753906e+00 1.449022960662841797e+01 6.957099914550781250e+00 1.288453006744384766e+01 8.055959701538085938e+00 1.659600019454956055e+00 1.262019991874694824e+00 1.074732971191406250e+01 9.877730369567871094e+00 9.864699840545654297e-01 9.261719703674316406e+00 1.003563022613525391e+01 1.352602958679199219e+01 3.861409902572631836e+00 9.386580467224121094e+00 4.273029804229736328e+00 9.406479835510253906e+00 3.930720090866088867e+00 7.173719882965087891e+00 1.399932956695556641e+01 6.078569889068603516e+00 1.210702991485595703e+01 1.766540050506591797e+00 1.159012985229492188e+01 1.311293029785156250e+01 3.941040039062500000e+00 4.214179992675781250e+00 4.400629997253417969e+00 1.625460028648376465e+00 4.367280006408691406e+00 7.741270065307617188e+00 7.986900210380554199e-01 7.524809837341308594e+00 1.239243030548095703e+01 1.862519979476928711e+00 5.167660236358642578e+00 7.138869762420654297e+00 8.107569694519042969e+00 6.476480007171630859e+00 7.354900240898132324e-01 9.497830390930175781e+00 1.449213027954101562e+01 1.592470049858093262e+00 2.793800115585327148e+00 1.158362960815429688e+01 1.120452976226806641e+01 1.053462982177734375e+01 6.299610137939453125e+00 6.219600200653076172e+00 7.616439819335937500e+00 6.906010150909423828e+00 1.458580970764160156e+01 1.071103000640869141e+01 6.268299818038940430e-01 3.156400024890899658e-01 2.415640115737915039e+00 1.131552982330322266e+01 1.094692993164062500e+01 8.915300369262695312e+00 7.178150177001953125e+00 9.422699928283691406e+00 4.473400115966796875e+00 2.460050106048583984e+00 1.415800005197525024e-01 8.209199905395507812e+00 2.177900075912475586e+00 3.062769889831542969e+00 8.318340301513671875e+00 4.170000076293945312e+00 5.402820110321044922e+00 1.014352989196777344e+01 6.919829845428466797e+00 1.031373023986816406e+01 3.261480093002319336e+00 2.516439914703369141e+00 1.410643005371093750e+01 6.867740154266357422e+00 9.720799922943115234e-01 4.006879806518554688e+00 8.679320335388183594e+00 4.790160179138183594e+00 4.279940128326416016e+00 9.351429939270019531e+00 1.070812988281250000e+01 1.342852973937988281e+01 1.294272994995117188e+01 1.196492958068847656e+01 6.387340068817138672e+00 1.200603008270263672e+01 9.512729644775390625e+00 3.805809974670410156e+00 6.760340213775634766e+00 1.388243007659912109e+01 1.369773006439208984e+01 6.581699848175048828e-01 9.739230155944824219e+00 1.438852977752685547e+01 1.359442996978759766e+01 1.084603023529052734e+01 5.889629840850830078e+00 1.080902957916259766e+01 1.037302970886230469e+01 3.079859972000122070e+00 7.867080211639404297e+00 1.269023036956787109e+01 4.019000008702278137e-02 4.969100058078765869e-01 5.018720149993896484e+00 3.995800018310546875e-01 5.370900034904479980e-01 8.552439689636230469e+00 1.107063007354736328e+01 1.272113037109375000e+01 2.547960042953491211e+00 3.070250034332275391e+00 1.176193046569824219e+01 4.192070007324218750e+00 4.656159877777099609e+00 2.517000027000904083e-02 4.860799789428710938e+00 1.354123020172119141e+01 5.054900050163269043e-01 8.498220443725585938e+00 1.014482975006103516e+01 1.136942958831787109e+01 6.923699855804443359e+00 2.765729904174804688e+00 1.970569968223571777e+00 4.687900066375732422e+00 6.447100043296813965e-01 7.708139896392822266e+00 1.369293022155761719e+01 8.080069541931152344e+00 9.237380027770996094e+00 8.877039909362792969e+00 8.515720367431640625e+00 8.573599815368652344e+00 1.122243022918701172e+01 1.455193042755126953e+01 7.176139831542968750e+00 1.300642967224121094e+01 1.023252964019775391e+01 3.157629966735839844e+00 1.256062984466552734e+01 7.170629978179931641e+00 9.909130096435546875e+00 9.862030029296875000e+00 7.281479835510253906e+00 8.080260276794433594e+00 1.105963039398193359e+01 1.318572998046875000e+01 6.494249820709228516e+00 1.292323017120361328e+01 8.947899818420410156e+00 4.136519908905029297e+00 1.275572967529296875e+01 1.189962959289550781e+01 1.278483009338378906e+01 6.559289932250976562e+00 3.873099982738494873e-01 2.322350025177001953e+00 1.212022972106933594e+01 6.639780044555664062e+00 1.434772968292236328e+01 1.201562976837158203e+01 6.595799922943115234e+00 7.873640060424804688e+00 1.162520051002502441e+00 3.501130104064941406e+00 5.702209949493408203e+00 7.941709995269775391e+00 8.815600275993347168e-01 2.891590118408203125e+00 5.149409770965576172e+00 1.842829942703247070e+00 1.116333007812500000e+01 1.111513042449951172e+01 5.357769966125488281e+00 7.361859798431396484e+00 9.942830085754394531e+00 1.377243041992187500e+01 1.093743038177490234e+01 1.196572971343994141e+01 8.682869911193847656e+00 8.240130424499511719e+00 7.038199901580810547e-01 2.741630077362060547e+00 1.383152961730957031e+01 1.971909999847412109e+00 9.248499870300292969e+00 1.258343029022216797e+01 1.064002990722656250e+01 1.344163036346435547e+01 9.593429565429687500e+00 1.099962997436523438e+01 8.838959693908691406e+00 7.083119869232177734e+00 9.595599770545959473e-01 2.351279973983764648e+00 8.659499883651733398e-01 2.744899988174438477e+00 9.385780334472656250e+00 1.124522972106933594e+01 8.820919990539550781e+00 9.578330039978027344e+00 1.569880008697509766e+00 1.443552970886230469e+01 1.065283012390136719e+01 1.344122982025146484e+01 2.473700046539306641e-01 3.516800105571746826e-01 9.088760375976562500e+00 1.528049945831298828e+00 9.136269569396972656e+00 2.468909978866577148e+00 9.245329856872558594e+00 9.759429931640625000e+00 3.067140102386474609e+00 1.340853023529052734e+01 1.003662967681884766e+01 1.426053047180175781e+01 1.003469944000244141e+00 1.684689998626708984e+00 8.954400062561035156e+00 2.772000074386596680e+00 1.029043006896972656e+01 2.548969984054565430e+00 3.892479896545410156e+00 1.096702957153320312e+01 1.027842998504638672e+01 4.093999862670898438e+00 4.179590225219726562e+00 7.275479793548583984e+00 4.378729820251464844e+00 6.034810066223144531e+00 6.557690143585205078e+00 9.722829818725585938e+00 1.206682968139648438e+01 2.886700034141540527e-01 7.951829910278320312e+00 7.034389972686767578e+00 2.782399892807006836e+00 4.561930179595947266e+00 2.619560003280639648e+00 7.730080127716064453e+00 3.892640113830566406e+00 5.476130008697509766e+00 5.117119789123535156e+00 9.880729675292968750e+00 1.175253009796142578e+01 1.728899955749511719e+00 1.875620007514953613e+00 1.341273021697998047e+01 2.055089950561523438e+00 2.323500066995620728e-01 1.006882953643798828e+01 9.112500190734863281e+00 6.966810226440429688e+00 4.304090023040771484e+00 3.472879886627197266e+00 1.182952976226806641e+01 9.869729995727539062e+00 1.320940017700195312e+00 2.635839939117431641e+00 1.370893001556396484e+01 6.148200035095214844e-01 7.802600264549255371e-01 9.284979820251464844e+00 1.040993022918701172e+01 7.365180015563964844e+00 5.571330070495605469e+00 4.163750171661376953e+00 1.067162990570068359e+01 4.107140064239501953e+00 3.887520074844360352e+00 2.072360038757324219e+00 1.291232967376708984e+01 1.348223018646240234e+01 7.750679969787597656e+00 5.991680145263671875e+00 9.358199834823608398e-01 7.102330207824707031e+00 1.242992973327636719e+01 1.148353004455566406e+01 7.879920005798339844e+00 2.192869901657104492e+00 1.197412967681884766e+01 4.724919795989990234e+00 9.984430313110351562e+00 1.127233028411865234e+01 6.179729938507080078e+00 6.138269901275634766e+00 1.274099946022033691e+00 6.501659870147705078e+00 1.286773014068603516e+01 1.011972999572753906e+01 7.077050209045410156e+00 1.765349984169006348e+00 1.325743007659912109e+01 3.860579967498779297e+00 1.442873001098632812e+01 4.309589862823486328e+00 9.825929641723632812e+00 8.988000154495239258e-01 1.333410024642944336e+00 5.959730148315429688e+00 1.173383045196533203e+01 5.384789943695068359e+00 7.367559909820556641e+00 3.836260080337524414e+00 5.652229785919189453e+00 4.723450183868408203e+00 1.440552997589111328e+01 2.975850105285644531e+00 1.013333034515380859e+01 1.408893013000488281e+01 1.716549992561340332e+00 5.311019897460937500e+00 1.045893001556396484e+01 4.759109973907470703e+00 7.991199970245361328e+00 2.534460067749023438e+00 6.131750106811523438e+00 1.258092975616455078e+01 5.431789875030517578e+00 1.348083019256591797e+01 1.322282981872558594e+01 1.615260004997253418e+00 1.411972999572753906e+01 8.960000038146972656e+00 3.698800086975097656e+00 1.835880041122436523e+00 3.798660039901733398e+00 1.174302959442138672e+01 3.645849943161010742e+00 1.065972995758056641e+01 9.099209785461425781e+00 1.125312995910644531e+01 1.262763023376464844e+01 1.012369990348815918e+00 1.291893005371093750e+01 1.039743041992187500e+01 3.356689929962158203e+00 1.530539989471435547e+00 2.268140077590942383e+00 1.183473014831542969e+01 3.535470008850097656e+00 1.268152999877929688e+01 1.106272983551025391e+01 5.238749980926513672e+00 2.036000013351440430e+00 4.150420188903808594e+00 2.271509885787963867e+00 8.670300245285034180e-01 6.655270099639892578e+00 1.091783046722412109e+01 1.084263038635253906e+01 4.102479934692382812e+00 9.641630172729492188e+00 1.234953022003173828e+01 1.066312980651855469e+01 6.688049793243408203e+00 2.437890052795410156e+00 5.650400161743164062e+00 2.413500070571899414e+00 9.227740287780761719e+00 6.701829910278320312e+00 3.518860101699829102e+00 8.047900199890136719e+00 1.362843036651611328e+01 1.416882991790771484e+01 1.332952976226806641e+01 8.178669929504394531e+00 1.301212978363037109e+01 1.244902992248535156e+01 2.796649932861328125e+00 9.717430114746093750e+00 1.139552974700927734e+01 8.363349914550781250e+00 1.539240002632141113e+00 2.402940034866333008e+00 7.595870018005371094e+00 1.093492984771728516e+01 1.421033000946044922e+01 8.265500068664550781e+00 1.178112983703613281e+01 1.331552982330322266e+01 4.006140232086181641e+00 8.902090072631835938e+00 9.877030372619628906e+00 9.971329689025878906e+00 1.398752975463867188e+01 2.225300073623657227e+00 7.338389873504638672e+00 9.469109535217285156e+00 6.326789855957031250e+00 9.169010162353515625e+00 1.311252975463867188e+01 1.453413009643554688e+01 5.881609916687011719e+00 8.093440055847167969e+00 6.287759780883789062e+00 5.291709899902343750e+00 1.119633007049560547e+01 1.402322959899902344e+01 3.527470111846923828e+00 4.444270133972167969e+00 6.760950088500976562e+00 1.048472976684570312e+01 1.240542984008789062e+01 1.436752986907958984e+01 5.757180213928222656e+00 9.652230262756347656e+00 1.225932979583740234e+01 9.271369934082031250e+00 1.171833038330078125e+01 1.260603046417236328e+01 3.900449991226196289e+00 3.850549936294555664e+00 1.281443023681640625e+01 3.939860105514526367e+00 4.738500118255615234e-01 7.546810150146484375e+00 4.426229953765869141e+00 7.979710102081298828e+00 3.843500018119812012e-01 1.121343040466308594e+01 1.171642971038818359e+01 1.358582973480224609e+01 1.796800047159194946e-01 1.084782981872558594e+01 1.163282966613769531e+01 3.140919923782348633e+00 1.603000052273273468e-02 8.071880340576171875e+00 5.782750129699707031e+00 8.605850219726562500e+00 1.545480012893676758e+00 1.230862998962402344e+01 1.110393047332763672e+01 1.207013034820556641e+01 2.154600024223327637e-01 1.102143001556396484e+01 3.067640066146850586e+00 4.996459960937500000e+00 1.243142986297607422e+01 9.505530357360839844e+00 5.125699996948242188e+00 1.351072978973388672e+01 2.033119916915893555e+00 7.173399925231933594e+00 5.084640026092529297e+00 4.693049907684326172e+00 3.303630113601684570e+00 1.132353019714355469e+01 4.587790012359619141e+00 5.582109928131103516e+00 1.246813011169433594e+01 8.449339866638183594e+00 4.057909965515136719e+00 1.325063037872314453e+01 6.027560234069824219e+00 1.298419952392578125e+00 7.228139877319335938e+00 1.882879972457885742e+00 4.067920207977294922e+00 1.076562976837158203e+01 2.903729915618896484e+00 2.069360017776489258e+00 1.118649959564208984e+00 1.117772960662841797e+01 4.283289909362792969e+00 5.362339973449707031e+00 1.143612957000732422e+01 1.226733016967773438e+01 2.320120096206665039e+00 6.851880073547363281e+00 9.093629837036132812e+00 9.454050064086914062e+00 2.709059953689575195e+00 1.843819975852966309e+00 2.548540115356445312e+00 5.879509925842285156e+00 1.032822990417480469e+01 1.814099997282028198e-01 1.237082958221435547e+01 1.222082996368408203e+01 1.236080050468444824e+00 6.918970108032226562e+00 1.073373031616210938e+01 9.371660232543945312e+00 4.498260021209716797e+00 6.105490207672119141e+00 3.232369899749755859e+00 6.946209907531738281e+00 8.351409912109375000e+00 6.603320121765136719e+00 7.011229991912841797e+00 5.589650154113769531e+00 1.253363037109375000e+01 1.193642997741699219e+01 7.128920078277587891e+00 5.630020141601562500e+00 4.984010219573974609e+00 4.774149894714355469e+00 3.837739944458007812e+00 6.979829788208007812e+00 9.752929687500000000e+00 7.218750000000000000e+00 6.287599802017211914e-01 4.891129970550537109e+00 6.019430160522460938e+00 1.245543003082275391e+01 6.673130035400390625e+00 4.246349811553955078e+00 7.903299927711486816e-01 1.935600042343139648e-01 1.269822978973388672e+01 5.780739784240722656e+00 7.374599933624267578e+00 1.047953033447265625e+01 1.370792961120605469e+01 5.161019802093505859e+00 2.971009969711303711e+00 1.123173046112060547e+01 1.072260022163391113e+00 3.344330072402954102e+00 4.612700045108795166e-01 1.329183006286621094e+01 1.270312976837158203e+01 4.873670101165771484e+00 8.541449546813964844e+00 1.003993034362792969e+01 1.439132976531982422e+01 6.508100032806396484e+00 3.168570041656494141e+00 1.232143020629882812e+01 2.076669931411743164e+00 3.922930002212524414e+00 4.692430019378662109e+00 1.672580003738403320e+00 4.397510051727294922e+00 4.434539794921875000e+00 1.049773025512695312e+01 4.881699979305267334e-01 1.386450052261352539e+00 1.449722957611083984e+01 4.551650047302246094e+00 1.437162971496582031e+01 7.171889781951904297e+00 6.088510036468505859e+00 5.610070228576660156e+00 2.578439950942993164e+00 5.359049797058105469e+00 3.369100093841552734e-01 8.168390274047851562e+00 8.685399889945983887e-01 1.146579980850219727e+00 1.393313026428222656e+01 5.921810150146484375e+00 8.329600095748901367e-01 7.576590061187744141e+00 7.249340057373046875e+00 3.042490005493164062e+00 1.181622982025146484e+01 1.411023044586181641e+01 1.011433029174804688e+01 7.178979873657226562e+00 1.442263031005859375e+01 2.999289989471435547e+00 9.211179733276367188e+00 1.439612960815429688e+01 5.374000072479248047e-01 9.995829582214355469e+00 4.805880069732666016e+00 8.831040382385253906e+00 1.403262996673583984e+01 7.443290233612060547e+00 9.680230140686035156e+00 7.808219909667968750e+00 1.297622966766357422e+01 1.531180024147033691e+00 9.816129684448242188e+00 1.455430984497070312e+01 1.364639997482299805e+00 1.081383037567138672e+01 5.781599998474121094e+00 9.803699851036071777e-01 1.146072959899902344e+01 7.393819808959960938e+00 1.264463043212890625e+01 1.376823043823242188e+01 8.496879577636718750e+00 1.030593013763427734e+01 3.231879949569702148e+00 1.127482986450195312e+01 1.327919960021972656e+00 5.897170066833496094e+00 4.399999976158142090e-01 2.368619918823242188e+00 1.102523040771484375e+01 7.654479980468750000e+00 1.289422988891601562e+01 1.248733043670654297e+01 9.204759597778320312e+00 1.095623016357421875e+01 1.889950037002563477e+00 1.172632980346679688e+01 1.677400022745132446e-01 6.575769901275634766e+00 1.435912990570068359e+01 1.266232967376708984e+01 3.381030082702636719e+00 1.259222984313964844e+01 2.772320032119750977e+00 8.657239913940429688e+00 7.214580059051513672e+00 1.439783000946044922e+01 1.321452999114990234e+01 7.693439960479736328e+00 1.837620019912719727e+00 5.874949932098388672e+00 4.281139850616455078e+00 1.413053035736083984e+01 3.536780118942260742e+00 1.210023021697998047e+01 2.955090045928955078e+00 7.196010112762451172e+00 7.112370014190673828e+00 1.387753009796142578e+01 1.265443038940429688e+01 6.330739974975585938e+00 1.444452953338623047e+01 5.964409828186035156e+00 1.187753009796142578e+01 1.367483043670654297e+01 1.285412979125976562e+01 3.132430076599121094e+00 1.370312976837158203e+01 8.772899627685546875e+00 1.643450021743774414e+00 9.301170349121093750e+00 8.187999725341796875e+00 4.804780006408691406e+00 3.200419902801513672e+00 2.957540035247802734e+00 5.751229763031005859e+00 1.364632987976074219e+01 1.415843009948730469e+01 3.949630022048950195e+00 7.619150161743164062e+00 1.418212985992431641e+01 6.475470066070556641e+00 1.072943019866943359e+01 8.779689788818359375e+00 4.776720046997070312e+00 2.095319986343383789e+00 1.703410029411315918e+00 5.635799884796142578e+00 7.556139945983886719e+00 1.327462959289550781e+01 4.074629783630371094e+00 3.620990037918090820e+00 8.477190017700195312e+00 4.278480052947998047e+00 8.784580230712890625e+00 2.020060062408447266e+00 1.410542964935302734e+01 3.969980001449584961e+00 1.356142997741699219e+01 1.265602970123291016e+01 8.333609580993652344e+00 1.253872966766357422e+01 5.335619926452636719e+00 2.712970018386840820e+00 9.611829757690429688e+00 4.673940181732177734e+00 1.038502979278564453e+01 1.751600027084350586e+00 1.404022979736328125e+01 5.137740135192871094e+00 1.358582973480224609e+01 1.170302963256835938e+01 1.257353019714355469e+01 1.838299989700317383e+00 7.663829803466796875e+00 8.736689567565917969e+00 1.056583023071289062e+01 6.333980083465576172e+00 9.749130249023437500e+00 1.556310057640075684e+00 4.465839862823486328e+00 4.468249797821044922e+00 1.039243030548095703e+01 7.352620124816894531e+00 1.263803005218505859e+01 9.228299856185913086e-01 6.332930088043212891e+00 1.004203033447265625e+01 1.133393001556396484e+01 6.138850212097167969e+00 9.664230346679687500e+00 1.006800055503845215e+00 5.961480140686035156e+00 4.294189929962158203e+00 1.151972961425781250e+01 6.478350162506103516e+00 6.211510181427001953e+00 4.126850128173828125e+00 1.480849981307983398e+00 5.629079818725585938e+00 8.242050170898437500e+00 2.880019903182983398e+00 1.079600006341934204e-01 1.173202991485595703e+01 1.249559998512268066e+00 1.076733016967773438e+01 1.088272953033447266e+01 1.302283000946044922e+01 1.323243045806884766e+01 1.334873008728027344e+01 1.251282978057861328e+01 4.037529945373535156e+00 8.408349990844726562e+00 2.682300090789794922e+00 3.955799937248229980e-01 1.139863014221191406e+01 2.729739904403686523e+00 6.666629791259765625e+00 1.406513023376464844e+01 1.459457015991210938e+01