
     Program PWSCF v.5.4.0 starts on 22Sep2019 at 18:27:58 

     This program is part of the open-source Quantum ESPRESSO suite
     for quantum simulation of materials; please cite
         "P. Giannozzi et al., J. Phys.:Condens. Matter 21 395502 (2009);
          URL http://www.quantum-espresso.org", 
     in publications or presentations arising from this work. More details at
     http://www.quantum-espresso.org/quote

           HOST :    @host@
           ARCH :    
             CC :    cc
            CPP :    cpp
            F90 :    mpif90
            F77 :    gfortran
         DFLAGS :    -D__GFORTRAN -D__STD_F95 -D__FFTW3 -D__MPI -D__PARA
      BLAS LIBS :    -lopenblas
    LAPACK LIBS :    -lopenblas
       FFT LIBS :    -lfftw3
      MASS LIBS :    

     Parallel version (MPI), running on    28 processors
     R & G space division:  proc/nbgrp/npool/nimage =      28
     Waiting for input...
     Reading input from standard input
Warning: card &IONS ignored
Warning: card / ignored
Warning: card &CELL ignored
Warning: card / ignored

     Current dimensions of program PWSCF are:
     Max number of different atomic species (ntypx) = 10
     Max number of k-points (npk) =  40000
     Max angular momentum in pseudopotentials (lmaxx) =  3

     IMPORTANT: XC functional enforced from input :
     Exchange-correlation      = PBE ( 1  4  3  4 0 0)
     Any further DFT definition will be discarded
     Please, verify this is what you really want


     gamma-point specific algorithms are used

     Subspace diagonalization in iterative solution of the eigenvalue problem:
     a serial algorithm will be used


     Parallelization info
     --------------------
     sticks:   dense  smooth     PW     G-vecs:    dense   smooth      PW
     Min         445     445    110                37558    37558    4694
     Max         448     448    112                37564    37564    4708
     Sum       12517   12517   3125              1051747  1051747  131683
     Tot        6259    6259   1563



     bravais-lattice index     =            1
     lattice parameter (alat)  =      18.8973  a.u.
     unit-cell volume          =    6748.3346 (a.u.)^3
     number of atoms/cell      =            5
     number of atomic types    =            2
     number of electrons       =         8.00
     number of Kohn-Sham states=            4
     kinetic-energy cutoff     =     110.0000  Ry
     charge density cutoff     =     440.0000  Ry
     convergence threshold     =      1.0E-06
     mixing beta               =       0.5000
     number of iterations used =            8  plain     mixing
     Exchange-correlation      = PBE ( 1  4  3  4 0 0)

     celldm(1)=  18.897261  celldm(2)=   0.000000  celldm(3)=   0.000000
     celldm(4)=   0.000000  celldm(5)=   0.000000  celldm(6)=   0.000000

     crystal axes: (cart. coord. in units of alat)
               a(1) = (   1.000000   0.000000   0.000000 )  
               a(2) = (   0.000000   1.000000   0.000000 )  
               a(3) = (   0.000000   0.000000   1.000000 )  

     reciprocal axes: (cart. coord. in units 2 pi/alat)
               b(1) = (  1.000000  0.000000  0.000000 )  
               b(2) = (  0.000000  1.000000  0.000000 )  
               b(3) = (  0.000000  0.000000  1.000000 )  


     PseudoPot. # 1 for  H read from file:
     ../pseudo/H.tm.pbe.UPF
     MD5 check sum: 4b614d66af87240b7a5107bfa527a767
     Pseudo is Norm-conserving, Zval =  1.0
     Generated using "atomic" code by A. Dal Corso  v.5.2.0
     Using radial grid of  929 points,  0 beta functions with: 

     PseudoPot. # 2 for  C read from file:
     ../pseudo/C.tm.pbe.UPF
     MD5 check sum: a4f27fcb9b24331b00ace8e732a7e062
     Pseudo is Norm-conserving, Zval =  4.0
     Generated using "atomic" code by A. Dal Corso  v.5.2.0
     Using radial grid of 1073 points,  1 beta functions with: 
                l(1) =   1

     atomic species   valence    mass     pseudopotential
        H              1.00     1.00000      H( 1.00)
        C              4.00     1.00000      C( 1.00)

     No symmetry found



   Cartesian axes

     site n.     atom                  positions (alat units)
         1           H   tau(   1) = (   0.5020610   0.4150690   0.3619160  )
         2           H   tau(   2) = (   0.3563160   0.4925170   0.4423930  )
         3           H   tau(   3) = (   0.5176440   0.5752380   0.4422910  )
         4           H   tau(   4) = (   0.4944950   0.4217300   0.5347190  )
         5           C   tau(   5) = (   0.4664920   0.4787820   0.4439130  )

     number of k points=     1
                       cart. coord. in units 2pi/alat
        k(    1) = (   0.0000000   0.0000000   0.0000000), wk =   2.0000000

     Dense  grid:   525874 G-vectors     FFT dimensions: ( 128, 128, 128)

     Largest allocated arrays     est. size (Mb)     dimensions
        Kohn-Sham Wavefunctions         0.14 Mb     (    2354,    4)
        NL pseudopotentials             0.11 Mb     (    2354,    3)
        Each V/rho on FFT grid          1.25 Mb     (   81920)
        Each G-vector array             0.14 Mb     (   18782)
        G-vector shells                 0.02 Mb     (    2785)
     Largest temporary arrays     est. size (Mb)     dimensions
        Auxiliary wavefunctions         0.29 Mb     (    2354,   16)
        Each subspace H/S matrix        0.00 Mb     (      16,   16)
        Each <psi_i|beta_j> matrix      0.00 Mb     (       3,    4)
        Arrays for rho mixing          10.00 Mb     (   81920,    8)

     Initial potential from superposition of free atoms
     Check: negative starting charge=   -0.000382

     starting charge    7.99992, renormalised to    8.00000

     negative rho (up, down):  3.822E-04 0.000E+00
     Starting wfc are    8 randomized atomic wfcs

     total cpu time spent up to now is        2.9 secs

     per-process dynamical memory:   430.7 Mb

     Self-consistent Calculation

     iteration #  1     ecut=   110.00 Ry     beta=0.50
     Davidson diagonalization with overlap
     ethr =  1.00E-02,  avg # of iterations =  2.0

     negative rho (up, down):  1.806E-04 0.000E+00

     total cpu time spent up to now is        3.3 secs

     total energy              =     -16.02141034 Ry
     Harris-Foulkes estimate   =     -16.40362514 Ry
     estimated scf accuracy    <       0.67947918 Ry

     iteration #  2     ecut=   110.00 Ry     beta=0.50
     Davidson diagonalization with overlap
     ethr =  8.49E-03,  avg # of iterations =  2.0

     negative rho (up, down):  9.487E-05 0.000E+00

     total cpu time spent up to now is        3.9 secs

     total energy              =     -16.15232620 Ry
     Harris-Foulkes estimate   =     -16.17169235 Ry
     estimated scf accuracy    <       0.05025827 Ry

     iteration #  3     ecut=   110.00 Ry     beta=0.50
     Davidson diagonalization with overlap
     ethr =  6.28E-04,  avg # of iterations =  1.0

     negative rho (up, down):  5.338E-06 0.000E+00

     total cpu time spent up to now is        4.4 secs

     total energy              =     -16.15069190 Ry
     Harris-Foulkes estimate   =     -16.15615303 Ry
     estimated scf accuracy    <       0.01147901 Ry

     iteration #  4     ecut=   110.00 Ry     beta=0.50
     Davidson diagonalization with overlap
     ethr =  1.43E-04,  avg # of iterations =  3.0

     negative rho (up, down):  4.157E-06 0.000E+00

     total cpu time spent up to now is        5.0 secs

     total energy              =     -16.15267446 Ry
     Harris-Foulkes estimate   =     -16.15496149 Ry
     estimated scf accuracy    <       0.00547401 Ry

     iteration #  5     ecut=   110.00 Ry     beta=0.50
     Davidson diagonalization with overlap
     ethr =  6.84E-05,  avg # of iterations =  2.0

     negative rho (up, down):  2.703E-06 0.000E+00

     total cpu time spent up to now is        5.5 secs

     total energy              =     -16.15298677 Ry
     Harris-Foulkes estimate   =     -16.15313781 Ry
     estimated scf accuracy    <       0.00038068 Ry

     iteration #  6     ecut=   110.00 Ry     beta=0.50
     Davidson diagonalization with overlap
     ethr =  4.76E-06,  avg # of iterations =  3.0

     negative rho (up, down):  1.800E-08 0.000E+00

     total cpu time spent up to now is        6.2 secs

     total energy              =     -16.15312588 Ry
     Harris-Foulkes estimate   =     -16.15312420 Ry
     estimated scf accuracy    <       0.00000557 Ry

     iteration #  7     ecut=   110.00 Ry     beta=0.50
     Davidson diagonalization with overlap
     ethr =  6.97E-08,  avg # of iterations =  2.0

     total cpu time spent up to now is        6.7 secs

     total energy              =     -16.15312405 Ry
     Harris-Foulkes estimate   =     -16.15312653 Ry
     estimated scf accuracy    <       0.00000577 Ry

     iteration #  8     ecut=   110.00 Ry     beta=0.50
     Davidson diagonalization with overlap
     ethr =  6.97E-08,  avg # of iterations =  1.0

     total cpu time spent up to now is        7.2 secs

     End of self-consistent calculation

          k = 0.0000 0.0000 0.0000 ( 65842 PWs)   bands (ev):

   -16.7868  -9.4360  -9.3001  -8.9354

     highest occupied level (ev):    -8.9354

!    total energy              =     -16.15312404 Ry
     Harris-Foulkes estimate   =     -16.15312445 Ry
     estimated scf accuracy    <       0.00000077 Ry

     The total energy is the sum of the following terms:

     one-electron contribution =     -40.05031415 Ry
     hartree contribution      =      20.84830289 Ry
     xc contribution           =      -6.32584594 Ry
     ewald contribution        =       9.37473316 Ry

     convergence has been achieved in   8 iterations

     Forces acting on atoms (Ry/au):

     atom    1 type  1   force =    -0.00916209    0.00896170   -0.01050826
     atom    2 type  1   force =     0.01920132   -0.00359057   -0.00522389
     atom    3 type  1   force =     0.00140296    0.00307670    0.00040487
     atom    4 type  1   force =    -0.00590340    0.01598046   -0.00141171
     atom    5 type  2   force =    -0.00553879   -0.02442828    0.01673899

     Total force =     0.043531     Total SCF correction =     0.000690


     entering subroutine stress ...

          total   stress  (Ry/bohr**3)                   (kbar)     P=   -0.71
  -0.00000908   0.00000368   0.00000050         -1.34      0.54      0.07
   0.00000368  -0.00000542   0.00000200          0.54     -0.80      0.29
   0.00000050   0.00000200   0.00000009          0.07      0.29      0.01


     init_run     :      2.49s CPU      2.53s WALL (       1 calls)
     electrons    :      4.18s CPU      4.25s WALL (       1 calls)
     forces       :      0.91s CPU      0.91s WALL (       1 calls)
     stress       :      1.10s CPU      1.10s WALL (       1 calls)

     Called by init_run:
     wfcinit      :      0.10s CPU      0.11s WALL (       1 calls)
     potinit      :      1.00s CPU      1.03s WALL (       1 calls)

     Called by electrons:
     c_bands      :      2.00s CPU      2.02s WALL (       8 calls)
     sum_band     :      0.42s CPU      0.43s WALL (       8 calls)
     v_of_rho     :      1.72s CPU      1.76s WALL (       9 calls)
     mix_rho      :      0.21s CPU      0.21s WALL (       8 calls)

     Called by c_bands:
     init_us_2    :      0.04s CPU      0.04s WALL (      17 calls)
     regterg      :      1.97s CPU      1.99s WALL (       8 calls)

     Called by sum_band:

     Called by *egterg:
     h_psi        :      2.02s CPU      2.04s WALL (      25 calls)
     g_psi        :      0.01s CPU      0.01s WALL (      16 calls)
     rdiaghg      :      0.00s CPU      0.00s WALL (      24 calls)

     Called by h_psi:
     add_vuspsi   :      0.00s CPU      0.00s WALL (      25 calls)

     General routines
     calbec       :      0.76s CPU      0.76s WALL (      30 calls)
     fft          :      1.66s CPU      1.72s WALL (     106 calls)
     fftw         :      1.27s CPU      1.30s WALL (     112 calls)

     Parallel routines
     fft_scatter  :      1.32s CPU      1.37s WALL (     218 calls)

     PWSCF        :     9.04s CPU         9.20s WALL


   This run was terminated on:  18:28: 7  22Sep2019            

=------------------------------------------------------------------------------=
   JOB DONE.
=------------------------------------------------------------------------------=
