   6   6   0   0
  0.5000000E+03  0.3000000E-08  0.1000000E-08  0.1000000E-08  0.5000000E-15
  1.000000000000000E-004
  CAR 
 unknown system                          
      1.51704782    -26.02223589  301     -6.73326259      1.00000000
    -26.022  0.0000E+00  0.0000E+00
    -25.930  0.0000E+00  0.0000E+00
    -25.839  0.0000E+00  0.0000E+00
    -25.747  0.0000E+00  0.0000E+00
    -25.655  0.0000E+00  0.0000E+00
    -25.563  0.0000E+00  0.0000E+00
    -25.471  0.0000E+00  0.0000E+00
    -25.380  0.0000E+00  0.0000E+00
    -25.288  0.0000E+00  0.0000E+00
    -25.196  0.0000E+00  0.0000E+00
    -25.104  0.0000E+00  0.0000E+00
    -25.012  0.8323E-10  0.7641E-11
    -24.921  0.2342E-03  0.2150E-04
    -24.829  0.1073E+01  0.9848E-01
    -24.737  0.1702E+02  0.1661E+01
    -24.645  0.1343E+02  0.2894E+01
    -24.553  0.1189E+02  0.3986E+01
    -24.462  0.1496E+00  0.4000E+01
    -24.370  0.4552E-05  0.4000E+01
    -24.278  0.2080E-12  0.4000E+01
    -24.186  0.0000E+00  0.4000E+01
    -24.094  0.0000E+00  0.4000E+01
    -24.003  0.0000E+00  0.4000E+01
    -23.911  0.0000E+00  0.4000E+01
    -23.819  0.0000E+00  0.4000E+01
    -23.727  0.0000E+00  0.4000E+01
    -23.635  0.0000E+00  0.4000E+01
    -23.544  0.0000E+00  0.4000E+01
    -23.452  0.0000E+00  0.4000E+01
    -23.360  0.0000E+00  0.4000E+01
    -23.268  0.0000E+00  0.4000E+01
    -23.177  0.0000E+00  0.4000E+01
    -23.085  0.0000E+00  0.4000E+01
    -22.993  0.0000E+00  0.4000E+01
    -22.901  0.0000E+00  0.4000E+01
    -22.809  0.0000E+00  0.4000E+01
    -22.718  0.0000E+00  0.4000E+01
    -22.626  0.0000E+00  0.4000E+01
    -22.534  0.0000E+00  0.4000E+01
    -22.442  0.0000E+00  0.4000E+01
    -22.350  0.0000E+00  0.4000E+01
    -22.259  0.0000E+00  0.4000E+01
    -22.167  0.0000E+00  0.4000E+01
    -22.075  0.0000E+00  0.4000E+01
    -21.983  0.0000E+00  0.4000E+01
    -21.891  0.0000E+00  0.4000E+01
    -21.800  0.0000E+00  0.4000E+01
    -21.708  0.0000E+00  0.4000E+01
    -21.616  0.0000E+00  0.4000E+01
    -21.524  0.0000E+00  0.4000E+01
    -21.432  0.0000E+00  0.4000E+01
    -21.341  0.0000E+00  0.4000E+01
    -21.249  0.0000E+00  0.4000E+01
    -21.157  0.0000E+00  0.4000E+01
    -21.065  0.0000E+00  0.4000E+01
    -20.973  0.0000E+00  0.4000E+01
    -20.882  0.0000E+00  0.4000E+01
    -20.790  0.0000E+00  0.4000E+01
    -20.698  0.0000E+00  0.4000E+01
    -20.606  0.0000E+00  0.4000E+01
    -20.514  0.0000E+00  0.4000E+01
    -20.423  0.0000E+00  0.4000E+01
    -20.331  0.0000E+00  0.4000E+01
    -20.239  0.0000E+00  0.4000E+01
    -20.147  0.0000E+00  0.4000E+01
    -20.055  0.0000E+00  0.4000E+01
    -19.964  0.0000E+00  0.4000E+01
    -19.872  0.0000E+00  0.4000E+01
    -19.780  0.0000E+00  0.4000E+01
    -19.688  0.0000E+00  0.4000E+01
    -19.596  0.0000E+00  0.4000E+01
    -19.505  0.0000E+00  0.4000E+01
    -19.413  0.0000E+00  0.4000E+01
    -19.321  0.0000E+00  0.4000E+01
    -19.229  0.0000E+00  0.4000E+01
    -19.137  0.0000E+00  0.4000E+01
    -19.046  0.0000E+00  0.4000E+01
    -18.954  0.0000E+00  0.4000E+01
    -18.862  0.0000E+00  0.4000E+01
    -18.770  0.0000E+00  0.4000E+01
    -18.678  0.0000E+00  0.4000E+01
    -18.587  0.0000E+00  0.4000E+01
    -18.495  0.0000E+00  0.4000E+01
    -18.403  0.0000E+00  0.4000E+01
    -18.311  0.0000E+00  0.4000E+01
    -18.219  0.0000E+00  0.4000E+01
    -18.128  0.0000E+00  0.4000E+01
    -18.036  0.0000E+00  0.4000E+01
    -17.944  0.0000E+00  0.4000E+01
    -17.852  0.0000E+00  0.4000E+01
    -17.760  0.0000E+00  0.4000E+01
    -17.669  0.0000E+00  0.4000E+01
    -17.577  0.0000E+00  0.4000E+01
    -17.485  0.0000E+00  0.4000E+01
    -17.393  0.0000E+00  0.4000E+01
    -17.301  0.0000E+00  0.4000E+01
    -17.210  0.0000E+00  0.4000E+01
    -17.118  0.0000E+00  0.4000E+01
    -17.026  0.0000E+00  0.4000E+01
    -16.934  0.0000E+00  0.4000E+01
    -16.842  0.0000E+00  0.4000E+01
    -16.751  0.0000E+00  0.4000E+01
    -16.659  0.0000E+00  0.4000E+01
    -16.567  0.0000E+00  0.4000E+01
    -16.475  0.0000E+00  0.4000E+01
    -16.383  0.0000E+00  0.4000E+01
    -16.292  0.0000E+00  0.4000E+01
    -16.200  0.0000E+00  0.4000E+01
    -16.108  0.0000E+00  0.4000E+01
    -16.016  0.0000E+00  0.4000E+01
    -15.924  0.0000E+00  0.4000E+01
    -15.833  0.0000E+00  0.4000E+01
    -15.741  0.0000E+00  0.4000E+01
    -15.649  0.0000E+00  0.4000E+01
    -15.557  0.0000E+00  0.4000E+01
    -15.466  0.0000E+00  0.4000E+01
    -15.374  0.0000E+00  0.4000E+01
    -15.282  0.0000E+00  0.4000E+01
    -15.190  0.0000E+00  0.4000E+01
    -15.098  0.0000E+00  0.4000E+01
    -15.007  0.0000E+00  0.4000E+01
    -14.915  0.0000E+00  0.4000E+01
    -14.823  0.0000E+00  0.4000E+01
    -14.731  0.0000E+00  0.4000E+01
    -14.639  0.0000E+00  0.4000E+01
    -14.548  0.0000E+00  0.4000E+01
    -14.456  0.0000E+00  0.4000E+01
    -14.364  0.0000E+00  0.4000E+01
    -14.272  0.0000E+00  0.4000E+01
    -14.180  0.0000E+00  0.4000E+01
    -14.089  0.0000E+00  0.4000E+01
    -13.997  0.0000E+00  0.4000E+01
    -13.905  0.0000E+00  0.4000E+01
    -13.813  0.0000E+00  0.4000E+01
    -13.721  0.0000E+00  0.4000E+01
    -13.630  0.0000E+00  0.4000E+01
    -13.538  0.0000E+00  0.4000E+01
    -13.446  0.0000E+00  0.4000E+01
    -13.354  0.0000E+00  0.4000E+01
    -13.262  0.0000E+00  0.4000E+01
    -13.171  0.0000E+00  0.4000E+01
    -13.079  0.0000E+00  0.4000E+01
    -12.987  0.0000E+00  0.4000E+01
    -12.895  0.0000E+00  0.4000E+01
    -12.803  0.3453E-08  0.4000E+01
    -12.712  0.2407E-02  0.4000E+01
    -12.620  0.2966E+01  0.4272E+01
    -12.528  0.1739E+02  0.5869E+01
    -12.436  0.9124E+01  0.6707E+01
    -12.344  0.1380E+02  0.7974E+01
    -12.253  0.2877E+00  0.8000E+01
    -12.161  0.1591E-04  0.8000E+01
    -12.069  0.1345E-11  0.8000E+01
    -11.977  0.0000E+00  0.8000E+01
    -11.885  0.0000E+00  0.8000E+01
    -11.794  0.0000E+00  0.8000E+01
    -11.702  0.0000E+00  0.8000E+01
    -11.610  0.0000E+00  0.8000E+01
    -11.518  0.0000E+00  0.8000E+01
    -11.426  0.0000E+00  0.8000E+01
    -11.335  0.0000E+00  0.8000E+01
    -11.243  0.0000E+00  0.8000E+01
    -11.151  0.0000E+00  0.8000E+01
    -11.059  0.0000E+00  0.8000E+01
    -10.967  0.0000E+00  0.8000E+01
    -10.876  0.0000E+00  0.8000E+01
    -10.784  0.0000E+00  0.8000E+01
    -10.692  0.0000E+00  0.8000E+01
    -10.600  0.0000E+00  0.8000E+01
    -10.508  0.0000E+00  0.8000E+01
    -10.417  0.0000E+00  0.8000E+01
    -10.325  0.0000E+00  0.8000E+01
    -10.233  0.0000E+00  0.8000E+01
    -10.141  0.0000E+00  0.8000E+01
    -10.049  0.0000E+00  0.8000E+01
     -9.958  0.0000E+00  0.8000E+01
     -9.866  0.0000E+00  0.8000E+01
     -9.774  0.0000E+00  0.8000E+01
     -9.682  0.0000E+00  0.8000E+01
     -9.590  0.1423E-10  0.8000E+01
     -9.499  0.7498E-04  0.8000E+01
     -9.407  0.6244E+00  0.8057E+01
     -9.315  0.1587E+02  0.9514E+01
     -9.223  0.9279E+01  0.1037E+02
     -9.131  0.1682E+02  0.1191E+02
     -9.040  0.9842E+00  0.1200E+02
     -8.948  0.1947E-03  0.1200E+02
     -8.856  0.6237E-10  0.1200E+02
     -8.764  0.0000E+00  0.1200E+02
     -8.672  0.0000E+00  0.1200E+02
     -8.581  0.0000E+00  0.1200E+02
     -8.489  0.0000E+00  0.1200E+02
     -8.397  0.0000E+00  0.1200E+02
     -8.305  0.0000E+00  0.1200E+02
     -8.213  0.0000E+00  0.1200E+02
     -8.122  0.0000E+00  0.1200E+02
     -8.030  0.0000E+00  0.1200E+02
     -7.938  0.0000E+00  0.1200E+02
     -7.846  0.0000E+00  0.1200E+02
     -7.755  0.0000E+00  0.1200E+02
     -7.663  0.0000E+00  0.1200E+02
     -7.571  0.0000E+00  0.1200E+02
     -7.479  0.0000E+00  0.1200E+02
     -7.387  0.7941E-11  0.1200E+02
     -7.296  0.5127E-04  0.1200E+02
     -7.204  0.5183E+00  0.1205E+02
     -7.112  0.1541E+02  0.1346E+02
     -7.020  0.7796E+01  0.1418E+02
     -6.928  0.1756E+02  0.1579E+02
     -6.837  0.2293E+01  0.1600E+02
     -6.745  0.1296E-02  0.1600E+02
     -6.653  0.1262E-08  0.1600E+02
     -6.561  0.0000E+00  0.1600E+02
     -6.469  0.0000E+00  0.1600E+02
     -6.378  0.0000E+00  0.1600E+02
     -6.286  0.0000E+00  0.1600E+02
     -6.194  0.0000E+00  0.1600E+02
     -6.102  0.0000E+00  0.1600E+02
     -6.010  0.0000E+00  0.1600E+02
     -5.919  0.0000E+00  0.1600E+02
     -5.827  0.0000E+00  0.1600E+02
     -5.735  0.0000E+00  0.1600E+02
     -5.643  0.0000E+00  0.1600E+02
     -5.551  0.0000E+00  0.1600E+02
     -5.460  0.0000E+00  0.1600E+02
     -5.368  0.0000E+00  0.1600E+02
     -5.276  0.0000E+00  0.1600E+02
     -5.184  0.0000E+00  0.1600E+02
     -5.092  0.0000E+00  0.1600E+02
     -5.001  0.0000E+00  0.1600E+02
     -4.909  0.0000E+00  0.1600E+02
     -4.817  0.0000E+00  0.1600E+02
     -4.725  0.0000E+00  0.1600E+02
     -4.633  0.0000E+00  0.1600E+02
     -4.542  0.0000E+00  0.1600E+02
     -4.450  0.0000E+00  0.1600E+02
     -4.358  0.0000E+00  0.1600E+02
     -4.266  0.0000E+00  0.1600E+02
     -4.174  0.0000E+00  0.1600E+02
     -4.083  0.0000E+00  0.1600E+02
     -3.991  0.0000E+00  0.1600E+02
     -3.899  0.0000E+00  0.1600E+02
     -3.807  0.0000E+00  0.1600E+02
     -3.715  0.0000E+00  0.1600E+02
     -3.624  0.0000E+00  0.1600E+02
     -3.532  0.0000E+00  0.1600E+02
     -3.440  0.0000E+00  0.1600E+02
     -3.348  0.0000E+00  0.1600E+02
     -3.256  0.0000E+00  0.1600E+02
     -3.165  0.0000E+00  0.1600E+02
     -3.073  0.0000E+00  0.1600E+02
     -2.981  0.0000E+00  0.1600E+02
     -2.889  0.0000E+00  0.1600E+02
     -2.797  0.0000E+00  0.1600E+02
     -2.706  0.0000E+00  0.1600E+02
     -2.614  0.0000E+00  0.1600E+02
     -2.522  0.0000E+00  0.1600E+02
     -2.430  0.0000E+00  0.1600E+02
     -2.338  0.0000E+00  0.1600E+02
     -2.247  0.0000E+00  0.1600E+02
     -2.155  0.0000E+00  0.1600E+02
     -2.063  0.0000E+00  0.1600E+02
     -1.971  0.0000E+00  0.1600E+02
     -1.879  0.0000E+00  0.1600E+02
     -1.788  0.0000E+00  0.1600E+02
     -1.696  0.0000E+00  0.1600E+02
     -1.604  0.0000E+00  0.1600E+02
     -1.512  0.0000E+00  0.1600E+02
     -1.420  0.2429E-10  0.1600E+02
     -1.329  0.1061E-03  0.1600E+02
     -1.237  0.7383E+00  0.1607E+02
     -1.145  0.1624E+02  0.1756E+02
     -1.053  0.6008E+01  0.1811E+02
     -0.961  0.1714E+02  0.1968E+02
     -0.870  0.3439E+01  0.2000E+02
     -0.778  0.3479E-02  0.2000E+02
     -0.686  0.6329E-08  0.2000E+02
     -0.594  0.0000E+00  0.2000E+02
     -0.502  0.0000E+00  0.2000E+02
     -0.411  0.0000E+00  0.2000E+02
     -0.319  0.0000E+00  0.2000E+02
     -0.227  0.0000E+00  0.2000E+02
     -0.135  0.0000E+00  0.2000E+02
     -0.044  0.2824E-09  0.2000E+02
      0.048  0.5086E-03  0.2000E+02
      0.140  0.1531E+01  0.2014E+02
      0.232  0.2119E+02  0.2209E+02
      0.324  0.1979E+02  0.2390E+02
      0.415  0.1064E+01  0.2400E+02
      0.507  0.2293E-03  0.2400E+02
      0.599  0.8050E-10  0.2400E+02
      0.691  0.0000E+00  0.2400E+02
      0.783  0.0000E+00  0.2400E+02
      0.874  0.0000E+00  0.2400E+02
      0.966  0.0000E+00  0.2400E+02
      1.058  0.0000E+00  0.2400E+02
      1.150  0.0000E+00  0.2400E+02
      1.242  0.0000E+00  0.2400E+02
      1.333  0.0000E+00  0.2400E+02
      1.425  0.0000E+00  0.2400E+02
      1.517  0.0000E+00  0.2400E+02
