 running on   32 total cores
 distrk:  each k-point on   32 cores,    1 groups
 distr:  one band on   16 cores,    2 groups
 using from now: INCAR     
 vasp.5.4.4.18Apr17-6-g9f103f2a35 (build Nov 25 2019 16:34:31) complex          
  
 POSCAR found type information on POSCAR  O  H 
 POSCAR found :  2 types and       6 ions
 scaLAPACK will be used

 ----------------------------------------------------------------------------- 
|                                                                             |
|           W    W    AA    RRRRR   N    N  II  N    N   GGGG   !!!           |
|           W    W   A  A   R    R  NN   N  II  NN   N  G    G  !!!           |
|           W    W  A    A  R    R  N N  N  II  N N  N  G       !!!           |
|           W WW W  AAAAAA  RRRRR   N  N N  II  N  N N  G  GGG   !            |
|           WW  WW  A    A  R   R   N   NN  II  N   NN  G    G                |
|           W    W  A    A  R    R  N    N  II  N    N   GGGG   !!!           |
|                                                                             |
|      For optimal performance we recommend to set                            |
|        NCORE= 4 - approx SQRT( number of cores)                             |
|      NCORE specifies how many cores store one orbital (NPAR=cpu/NCORE).     |
|      This setting can  greatly improve the performance of VASP for DFT.     |
|      The default,   NCORE=1            might be grossly inefficient         |
|      on modern multi-core architectures or massively parallel machines.     |
|      Do your own testing !!!!                                               |
|      Unfortunately you need to use the default for GW and RPA calculations. |
|      (for HF NCORE is supported but not extensively tested yet)             |
|                                                                             |
 ----------------------------------------------------------------------------- 

 LDA part: xc-table for Pade appr. of Perdew
 generate k-points for:    1    2    2
 POSCAR, INCAR and KPOINTS ok, starting setup
 FFT: planning ...
 WAVECAR not read
 WARNING: random wavefunctions but no delay for mixing, default for NELMDL
 entering main loop
       N       E                     dE             d eps       ncg     rms          rms(c)
DAV:   1     0.153428406382E+03    0.15343E+03   -0.47209E+03    64   0.142E+03
DAV:   2     0.585806460100E+02   -0.94848E+02   -0.93920E+02    96   0.139E+02
DAV:   3    -0.185664291737E+02   -0.77147E+02   -0.76186E+02    80   0.133E+02
DAV:   4    -0.316447318035E+02   -0.13078E+02   -0.13057E+02    64   0.720E+01
DAV:   5    -0.319823390994E+02   -0.33761E+00   -0.33737E+00    64   0.173E+01    0.182E+01
RMM:   6    -0.286045904906E+02    0.33777E+01   -0.11798E+01    64   0.247E+01    0.178E+01
RMM:   7    -0.285443492922E+02    0.60241E-01   -0.12887E+00    76   0.554E+00    0.156E+01
RMM:   8    -0.294372168601E+02   -0.89287E+00   -0.70271E+00    64   0.223E+01    0.116E+01
RMM:   9    -0.283042050739E+02    0.11330E+01   -0.28012E+00    64   0.121E+01    0.386E+00
RMM:  10    -0.283197357092E+02   -0.15531E-01   -0.18737E-01    76   0.242E+00    0.182E+00
RMM:  11    -0.283168071107E+02    0.29286E-02   -0.16709E-02    72   0.612E-01    0.703E-01
RMM:  12    -0.283179897264E+02   -0.11826E-02   -0.73231E-02    64   0.157E+00    0.725E-01
RMM:  13    -0.283210782872E+02   -0.30886E-02   -0.48104E-03    72   0.358E-01    0.663E-01
RMM:  14    -0.283319293148E+02   -0.10851E-01   -0.47822E-03    60   0.347E-01    0.550E-01
RMM:  15    -0.283325772443E+02   -0.64793E-03   -0.28002E-03    64   0.406E-01    0.195E-01
RMM:  16    -0.283352616271E+02   -0.26844E-02   -0.99774E-03    64   0.663E-01    0.206E-01
RMM:  17    -0.283377927501E+02   -0.25311E-02   -0.27809E-03    72   0.300E-01    0.346E-01
RMM:  18    -0.283373844034E+02    0.40835E-03   -0.79254E-04    64   0.196E-01    0.232E-01
RMM:  19    -0.283376415812E+02   -0.25718E-03   -0.54789E-03    60   0.471E-01    0.114E-01
RMM:  20    -0.283378575966E+02   -0.21602E-03   -0.83883E-04    68   0.142E-01    0.234E-01
RMM:  21    -0.283376429153E+02    0.21468E-03   -0.36364E-04    58   0.121E-01    0.166E-01
RMM:  22    -0.283372362099E+02    0.40671E-03   -0.31396E-04    70   0.103E-01    0.304E-02
RMM:  23    -0.283373446471E+02   -0.10844E-03   -0.38403E-05    62   0.406E-02    0.645E-02
RMM:  24    -0.283377310699E+02   -0.38642E-03   -0.14668E-03    60   0.251E-01    0.117E-01
RMM:  25    -0.283379596966E+02   -0.22863E-03   -0.83403E-05    64   0.473E-02    0.123E-01
RMM:  26    -0.283380490223E+02   -0.89326E-04   -0.30870E-04    56   0.116E-01    0.239E-02
RMM:  27    -0.283382926635E+02   -0.24364E-03   -0.43201E-04    56   0.124E-01    0.632E-02
RMM:  28    -0.283383830525E+02   -0.90389E-04   -0.64005E-05    70   0.408E-02    0.908E-02
RMM:  29    -0.283384187914E+02   -0.35739E-04   -0.93837E-05    58   0.619E-02    0.415E-02
RMM:  30    -0.283384989065E+02   -0.80115E-04   -0.14723E-04    56   0.739E-02    0.162E-02
RMM:  31    -0.283385283029E+02   -0.29396E-04   -0.19691E-05    72   0.211E-02    0.243E-02
RMM:  32    -0.283385574513E+02   -0.29148E-04   -0.54404E-06    56   0.150E-02    0.153E-02
RMM:  33    -0.283385848507E+02   -0.27399E-04   -0.20844E-06    60   0.763E-03    0.114E-02
RMM:  34    -0.283385937551E+02   -0.89044E-05   -0.10775E-06    66   0.600E-03    0.655E-03
RMM:  35    -0.283386006484E+02   -0.68933E-05   -0.11869E-06    66   0.636E-03    0.214E-03
RMM:  36    -0.283386055160E+02   -0.48676E-05   -0.89585E-07    60   0.544E-03    0.232E-03
RMM:  37    -0.283386063711E+02   -0.85512E-06   -0.20021E-07    66   0.249E-03    0.398E-03
RMM:  38    -0.283386069942E+02   -0.62308E-06   -0.69068E-08    58   0.174E-03    0.283E-03
RMM:  39    -0.283386078308E+02   -0.83664E-06   -0.22633E-07    52   0.297E-03    0.416E-04
RMM:  40    -0.283386082349E+02   -0.40406E-06   -0.22229E-08    46   0.915E-04    0.283E-04
RMM:  41    -0.283386084995E+02   -0.26459E-06   -0.28495E-08    46   0.107E-03    0.223E-04
RMM:  42    -0.283386086205E+02   -0.12096E-06   -0.94105E-09    46   0.629E-04    0.336E-04
RMM:  43    -0.283386086559E+02   -0.35453E-07   -0.32141E-09    44   0.371E-04    0.313E-04
RMM:  44    -0.283386086731E+02   -0.17239E-07   -0.11928E-09    42   0.237E-04    0.284E-04
RMM:  45    -0.283386086892E+02   -0.16026E-07   -0.13367E-09    48   0.267E-04    0.173E-04
RMM:  46    -0.283386087273E+02   -0.38124E-07   -0.93040E-10    30   0.208E-04    0.167E-04
RMM:  47    -0.283386087498E+02   -0.22501E-07   -0.36393E-09    36   0.427E-04    0.115E-04
RMM:  48    -0.283386087532E+02   -0.34443E-08   -0.11268E-09    40   0.231E-04
   1 F= -.28338609E+02 E0= -.28338609E+02  d E =-.316370E-11
