 vasp.5.4.4.18Apr17-6-g9f103f2a35 (build Nov 25 2019 16:34:31) complex          
  
 executed on             LinuxIFC date 2021.04.06  12:18:04
 running on   32 total cores
 distrk:  each k-point on   32 cores,    1 groups
 distr:  one band on NCORES_PER_BAND=  16 cores,    2 groups


--------------------------------------------------------------------------------------------------------


 INCAR:
 POTCAR:    PAW_PBE O_h 06Feb2004                 
 POTCAR:    PAW_PBE H_h 06Feb2004                 

 ----------------------------------------------------------------------------- 
|                                                                             |
|           W    W    AA    RRRRR   N    N  II  N    N   GGGG   !!!           |
|           W    W   A  A   R    R  NN   N  II  NN   N  G    G  !!!           |
|           W    W  A    A  R    R  N N  N  II  N N  N  G       !!!           |
|           W WW W  AAAAAA  RRRRR   N  N N  II  N  N N  G  GGG   !            |
|           WW  WW  A    A  R   R   N   NN  II  N   NN  G    G                |
|           W    W  A    A  R    R  N    N  II  N    N   GGGG   !!!           |
|                                                                             |
|      For optimal performance we recommend to set                            |
|        NCORE= 4 - approx SQRT( number of cores)                             |
|      NCORE specifies how many cores store one orbital (NPAR=cpu/NCORE).     |
|      This setting can  greatly improve the performance of VASP for DFT.     |
|      The default,   NCORE=1            might be grossly inefficient         |
|      on modern multi-core architectures or massively parallel machines.     |
|      Do your own testing !!!!                                               |
|      Unfortunately you need to use the default for GW and RPA calculations. |
|      (for HF NCORE is supported but not extensively tested yet)             |
|                                                                             |
 ----------------------------------------------------------------------------- 

 POTCAR:    PAW_PBE O_h 06Feb2004                 
   VRHFIN =O: s2p4                                                              
   LEXCH  = PE                                                                  
   EATOM  =   432.3788 eV,   31.7789 Ry                                         
                                                                                
   TITEL  = PAW_PBE O_h 06Feb2004                                               
   LULTRA =        F    use ultrasoft PP ?                                      
   IUNSCR =        1    unscreen: 0-lin 1-nonlin 2-no                           
   RPACOR =    0.800    partial core radius                                     
   POMASS =   16.000; ZVAL   =    6.000    mass and valenz                      
   RCORE  =    1.100    outmost cutoff radius                                   
   RWIGS  =    1.400; RWIGS  =    0.741    wigner-seitz radius (au A)           
   ENMAX  =  700.000; ENMIN  =  500.000 eV                                      
   ICORE  =        2    local potential                                         
   LCOR   =        T    correct aug charges                                     
   LPAW   =        T    paw PP                                                  
   EAUG   =  888.804                                                            
   DEXC   =    0.000                                                            
   RMAX   =    1.128    core radius for proj-oper                               
   RAUG   =    1.300    factor for augmentation sphere                          
   RDEP   =    1.125    radius for radial grids                                 
   RDEPT  =    1.088    core radius for aug-charge                              
                                                                                
   Atomic configuration                                                         
    4 entries                                                                   
     n  l   j            E        occ.                                          
     1  0  0.50      -514.6923   2.0000                                         
     2  0  0.50       -23.9615   2.0000                                         
     2  1  0.50        -9.0305   4.0000                                         
     3  2  1.50        -9.5241   0.0000                                         
   Description                                                                  
     l       E           TYP  RCUT    TYP  RCUT                                 
     0    -23.9615319     23  1.100                                             
     0    -25.3221145     23  1.100                                             
     1     -9.0304911     23  1.100                                             
     1     -5.4802209     23  1.100                                             
     2     -9.5240782      7  1.100                                             
  local pseudopotential read in
  partial core-charges read in
  partial kinetic energy density read in
  atomic valenz-charges read in
  non local Contribution for L=           0  read in
    real space projection operators read in
  non local Contribution for L=           0  read in
    real space projection operators read in
  non local Contribution for L=           1  read in
    real space projection operators read in
  non local Contribution for L=           1  read in
    real space projection operators read in
    PAW grid and wavefunctions read in
 
   number of l-projection  operators is LMAX  =           4
   number of lm-projection operators is LMMAX =           8
 
 POTCAR:    PAW_PBE H_h 06Feb2004                 
   VRHFIN =H: ultrasoft test                                                    
   LEXCH  = PE                                                                  
   EATOM  =    12.4884 eV,    0.9179 Ry                                         
                                                                                
   TITEL  = PAW_PBE H_h 06Feb2004                                               
   LULTRA =        F    use ultrasoft PP ?                                      
   IUNSCR =        0    unscreen: 0-lin 1-nonlin 2-no                           
   RPACOR =    0.000    partial core radius                                     
   POMASS =    1.000; ZVAL   =    1.000    mass and valenz                      
   RCORE  =    0.800    outmost cutoff radius                                   
   RWIGS  =    0.700; RWIGS  =    0.370    wigner-seitz radius (au A)           
   ENMAX  =  700.000; ENMIN  =  350.000 eV                                      
   RCLOC  =    0.701    cutoff for local pot                                    
   LCOR   =        T    correct aug charges                                     
   LPAW   =        T    paw PP                                                  
   EAUG   = 1000.000                                                            
   RMAX   =    0.819    core radius for proj-oper                               
   RAUG   =    1.000    factor for augmentation sphere                          
   RDEP   =    0.817    radius for radial grids                                 
   RDEPT  =    0.817    core radius for aug-charge                              
                                                                                
   Atomic configuration                                                         
    2 entries                                                                   
     n  l   j            E        occ.                                          
     1  0  0.50        -6.4927   1.0000                                         
     2  1  0.50        -3.4015   0.0000                                         
   Description                                                                  
     l       E           TYP  RCUT    TYP  RCUT                                 
     0     -6.4927493     23  0.800                                             
     0      6.8029130     23  0.800                                             
     1     -6.8029130     23  0.800                                             
  local pseudopotential read in
  atomic valenz-charges read in
  non local Contribution for L=           0  read in
    real space projection operators read in
  non local Contribution for L=           0  read in
    real space projection operators read in
  non local Contribution for L=           1  read in
    real space projection operators read in
    PAW grid and wavefunctions read in
 
   number of l-projection  operators is LMAX  =           3
   number of lm-projection operators is LMMAX =           5
 
  PAW_PBE O_h 06Feb2004                 :
 energy of atom  1       EATOM= -432.3788
 kinetic energy error for atom=    0.0035 (will be added to EATOM!!)
  PAW_PBE H_h 06Feb2004                 :
 energy of atom  2       EATOM=  -12.4884
 kinetic energy error for atom=    0.0001 (will be added to EATOM!!)
 
 
 POSCAR: O2 H4                                   
  positions in cartesian coordinates
  No initial velocities read in
 exchange correlation table for  LEXCH =        8
   RHO(1)=    0.500       N(1)  =     2000
   RHO(2)=  100.500       N(2)  =     4000
 


--------------------------------------------------------------------------------------------------------


 ion  position               nearest neighbor table
   1  0.289  0.157  0.176-   4 1.01   3 1.03
   2  0.955  0.157  0.176-   6 1.02   5 1.02
   3  0.299  0.255  0.174-   1 1.03
   4  0.255  0.167  0.176-   1 1.01
   5  0.946  0.099  0.256-   2 1.02
   6  0.946  0.099  0.096-   2 1.02
 
  LATTYP: Found a simple tetragonal cell.
 ALAT       =    10.0000000000
 C/A-ratio  =     3.0000000000
  
  Lattice vectors:
  
 A1 = (   0.0000000000,  10.0000000000,   0.0000000000)
 A2 = (   0.0000000000,   0.0000000000, -10.0000000000)
 A3 = ( -30.0000000000,   0.0000000000,   0.0000000000)


Analysis of symmetry for initial positions (statically):
=====================================================================
 Subroutine PRICEL returns:
 Original cell was already a primitive cell.
 

 Routine SETGRP: Setting up the symmetry group for a 
 simple tetragonal supercell.


 Subroutine GETGRP returns: Found  1 space group operations
 (whereof  1 operations were pure point group operations)
 out of a pool of 16 trial point group operations.


The static configuration has the point symmetry C_1 .


Analysis of symmetry for dynamics (positions and initial velocities):
=====================================================================
 Subroutine PRICEL returns:
 Original cell was already a primitive cell.
 

 Routine SETGRP: Setting up the symmetry group for a 
 simple tetragonal supercell.


 Subroutine GETGRP returns: Found  1 space group operations
 (whereof  1 operations were pure point group operations)
 out of a pool of 16 trial point group operations.


The dynamic configuration has the point symmetry C_1 .


 Subroutine INISYM returns: Found  1 space group operations
 (whereof  1 operations are pure point group operations),
 and found     1 'primitive' translations

 
 

Automatic generation of k-mesh.
 generate k-points for:    1    2    2
Space group operators:
 irot       det(A)        alpha          n_x          n_y          n_z        tau_x        tau_y        tau_z
    1     1.000000     0.000000     1.000000     0.000000     0.000000     0.000000     0.000000     0.000000
 
 Subroutine IBZKPT returns following result:
 ===========================================
 
 Found      2 irreducible k-points:
 
 Following reciprocal coordinates:
            Coordinates               Weight
  0.000000  0.250000  0.250000      2.000000
  0.000000 -0.250000  0.250000      2.000000
 
 Following cartesian coordinates:
            Coordinates               Weight
  0.000000  0.025000  0.025000      2.000000
  0.000000 -0.025000  0.025000      2.000000
 


--------------------------------------------------------------------------------------------------------




 Dimension of arrays:
   k-points           NKPTS =      2   k-points in BZ     NKDIM =      2   number of bands    NBANDS=     12
   number of dos      NEDOS =    301   number of ions     NIONS =      6
   non local maximal  LDIM  =      4   non local SUM 2l+1 LMDIM =      8
   total plane-waves  NPLWV = ******
   max r-space proj   IRMAX =      1   max aug-charges    IRDMAX=  15018
   dimension x,y,z NGX =   384 NGY =  126 NGZ =  126
   dimension x,y,z NGXF=   768 NGYF=  252 NGZF=  252
   support grid    NGXF=   768 NGYF=  252 NGZF=  252
   ions per type =               2   4
   NGX,Y,Z   is equivalent  to a cutoff of  21.28, 20.95, 20.95 a.u.
   NGXF,Y,Z  is equivalent  to a cutoff of  42.56, 41.89, 41.89 a.u.

 SYSTEM =  unknown system                          
 POSCAR =  O2 H4                                   

 Startparameter for this run:
   NWRITE =      2    write-flag & timer
   PREC   = a         normal or accurate (medium, high low for compatibility)
   ISTART =      0    job   : 0-new  1-cont  2-samecut
   ICHARG =      2    charge: 1-file 2-atom 10-const
   ISPIN  =      1    spin polarized calculation?
   LNONCOLLINEAR =      F non collinear calculations
   LSORBIT =      F    spin-orbit coupling
   INIWAV =      1    electr: 0-lowe 1-rand  2-diag
   LASPH  =      F    aspherical Exc in radial PAW
   METAGGA=      F    non-selfconsistent MetaGGA calc.

 Electronic Relaxation 1
   ENCUT  = 1500.0 eV 110.25 Ry   10.50 a.u.  94.74 31.58 31.58*2*pi/ulx,y,z
   ENINI  = 1500.0     initial cutoff
   ENAUG  = 1000.0 eV  augmentation charge cutoff
   NELM   =    300;   NELMIN=  4; NELMDL=  0     # of ELM steps 
   EDIFF  = 0.1E-07   stopping-criterion for ELM
   LREAL  =      F    real-space projection
   NLSPLINE    = F    spline interpolate recip. space projectors
   LCOMPAT=      F    compatible to vasp.4.4
   GGA_COMPAT  = T    GGA compatible to vasp.4.4-vasp.4.6
   LMAXPAW     = -100 max onsite density
   LMAXMIX     =    2 max onsite mixed and CHGCAR
   VOSKOWN=      0    Vosko Wilk Nusair interpolation
   ROPT   =    0.00000   0.00000
 Ionic relaxation
   EDIFFG = 0.1E-06   stopping-criterion for IOM
   NSW    =      0    number of steps for IOM
   NBLOCK =      1;   KBLOCK =      1    inner block; outer block 
   IBRION =     -1    ionic relax: 0-MD 1-quasi-New 2-CG
   NFREE  =      0    steps in history (QN), initial steepest desc. (CG)
   ISIF   =      2    stress and relaxation
   IWAVPR =     10    prediction:  0-non 1-charg 2-wave 3-comb
   ISYM   =      2    0-nonsym 1-usesym 2-fastsym
   LCORR  =      T    Harris-Foulkes like correction to forces

   POTIM  = 0.5000    time-step for ionic-motion
   TEIN   =    0.0    initial temperature
   TEBEG  =    0.0;   TEEND  =   0.0 temperature during run
   SMASS  =  -3.00    Nose mass-parameter (am)
   estimated Nose-frequenzy (Omega)   =  0.10E-29 period in steps =****** mass=  -0.206E-25a.u.
   SCALEE = 1.0000    scale energy and forces
   NPACO  =    256;   APACO  = 16.0  distance and # of slots for P.C.
   PSTRESS=    0.0 pullay stress

  Mass of Ions in am
   POMASS =  16.00  1.00
  Ionic Valenz
   ZVAL   =   6.00  1.00
  Atomic Wigner-Seitz radii
   RWIGS  =  -1.00 -1.00
  virtual crystal weights 
   VCA    =   1.00  1.00
   NELECT =      16.0000    total number of electrons
   NUPDOWN=      -1.0000    fix difference up-down

 DOS related values:
   EMIN   =  10.00;   EMAX   =-10.00  energy-range for DOS
   EFERMI =   0.00
   ISMEAR =     0;   SIGMA  =   0.05  broadening in eV -4-tet -1-fermi 0-gaus

 Electronic relaxation 2 (details)
   IALGO  =     68    algorithm
   LDIAG  =      T    sub-space diagonalisation (order eigenvalues)
   LSUBROT=      F    optimize rotation matrix (better conditioning)
   TURBO    =      0    0=normal 1=particle mesh
   IRESTART =      0    0=no restart 2=restart with 2 vectors
   NREBOOT  =      0    no. of reboots
   NMIN     =      0    reboot dimension
   EREF     =   0.00    reference energy to select bands
   IMIX   =      4    mixing-type and parameters
     AMIX     =   0.40;   BMIX     =  1.00
     AMIX_MAG =   1.60;   BMIX_MAG =  1.00
     AMIN     =   0.01
     WC   =   100.;   INIMIX=   1;  MIXPRE=   1;  MAXMIX= -45

 Intra band minimization:
   WEIMIN = 0.0000     energy-eigenvalue tresh-hold
   EBREAK =  0.21E-09  absolut break condition
   DEPER  =   0.30     relativ break condition  

   TIME   =   0.40     timestep for ELM

  volume/ion in A,a.u.               =     500.00      3374.17
  Fermi-wavevector in a.u.,A,eV,Ry     =   0.286027  0.540514  1.113116  0.081812
  Thomas-Fermi vector in A             =   1.140401
 
 Write flags
   LWAVE        =      F    write WAVECAR
   LDOWNSAMPLE  =      F    k-point downsampling of WAVECAR
   LCHARG       =      F    write CHGCAR
   LVTOT        =      F    write LOCPOT, total local potential
   LVHAR        =      F    write LOCPOT, Hartree potential only
   LELF         =      F    write electronic localiz. function (ELF)
   LORBIT       =      0    0 simple, 1 ext, 2 COOP (PROOUT), +10 PAW based schemes


 Dipole corrections
   LMONO  =      F    monopole corrections only (constant potential shift)
   LDIPOL =      F    correct potential (dipole corrections)
   IDIPOL =      0    1-x, 2-y, 3-z, 4-all directions 
   EPSILON=  1.0000000 bulk dielectric constant

 Exchange correlation treatment:
   GGA     =    --    GGA type
   LEXCH   =     8    internal setting for exchange type
   VOSKOWN=      0    Vosko Wilk Nusair interpolation
   LHFCALC =     F    Hartree Fock is set to
   LHFONE  =     F    Hartree Fock one center treatment
   AEXX    =    0.0000 exact exchange contribution

 Linear response parameters
   LEPSILON=     F    determine dielectric tensor
   LRPA    =     F    only Hartree local field effects (RPA)
   LNABLA  =     F    use nabla operator in PAW spheres
   LVEL    =     F    velocity operator in full k-point grid
   LINTERFAST=   F  fast interpolation
   KINTER  =     0    interpolate to denser k-point grid
   CSHIFT  =0.1000    complex shift for real part using Kramers Kronig
   OMEGAMAX=  -1.0    maximum frequency
   DEG_THRESHOLD= 0.2000000E-02 threshold for treating states as degnerate
   RTIME   =   -0.100 relaxation time in fs
  (WPLASMAI=    0.000 imaginary part of plasma frequency in eV, 0.658/RTIME)
   DFIELD  = 0.0000000 0.0000000 0.0000000 field for delta impulse in time
 
 Orbital magnetization related:
   ORBITALMAG=     F  switch on orbital magnetization
   LCHIMAG   =     F  perturbation theory with respect to B field
   DQ        =  0.001000  dq finite difference perturbation B field
   LLRAUG    =     F  two centre corrections for induced B field



--------------------------------------------------------------------------------------------------------


 Static calculation
 charge density and potential will be updated during run
 non-spin polarized calculation
 RMM-DIIS sequential band-by-band and
  variant of blocked Davidson during initial phase
 perform sub-space diagonalisation
    before iterative eigenvector-optimisation
 modified Broyden-mixing scheme, WC =      100.0
 initial mixing is a Kerker type mixing with AMIX =  0.4000 and BMIX =      1.0000
 Hartree-type preconditioning will be used
 using additional bands            4
 reciprocal scheme for non local part
 use partial core corrections
 calculate Harris-corrections to forces 
   (improved forces if not selfconsistent)
 use gradient corrections 
 use of overlap-Matrix (Vanderbilt PP)
 Gauss-broadening in eV      SIGMA  =   0.05


--------------------------------------------------------------------------------------------------------


  energy-cutoff  :     1500.00
  volume of cell :     3000.00
      direct lattice vectors                 reciprocal lattice vectors
    30.000000000  0.000000000  0.000000000     0.033333333  0.000000000  0.000000000
     0.000000000 10.000000000  0.000000000     0.000000000  0.100000000  0.000000000
     0.000000000  0.000000000 10.000000000     0.000000000  0.000000000  0.100000000

  length of vectors
    30.000000000 10.000000000 10.000000000     0.033333333  0.100000000  0.100000000


 
 k-points in units of 2pi/SCALE and weight: read from INCAR                         
   0.00000000  0.02500000  0.02500000       0.500
   0.00000000 -0.02500000  0.02500000       0.500
 
 k-points in reciprocal lattice and weights: read from INCAR                         
   0.00000000  0.25000000  0.25000000       0.500
   0.00000000 -0.25000000  0.25000000       0.500
 
 position of ions in fractional coordinates (direct lattice) 
   0.28853563  0.15710957  0.17600000
   0.95513104  0.15710957  0.17600000
   0.29921080  0.25541218  0.17439231
   0.25513922  0.16672783  0.17649328
   0.94612303  0.09941802  0.25610440
   0.94624850  0.09907990  0.09607226
 
 position of ions in cartesian coordinates  (Angst):
   8.65606885  1.57109570  1.76000001
  28.65393115  1.57109570  1.76000001
   8.97632402  2.55412181  1.74392306
   7.65417663  1.66727831  1.76493284
  28.38369087  0.99418024  2.56104402
  28.38745495  0.99079897  0.96072265
 


--------------------------------------------------------------------------------------------------------


 k-point  1 :   0.0000 0.2500 0.2500  plane waves:  395853
 k-point  2 :   0.0000-0.2500 0.2500  plane waves:  395853

 maximum and minimum number of plane-waves per node :     24838    24619

 maximum number of plane-waves:    395853
 maximum index in each direction: 
   IXMAX=   94   IYMAX=   31   IZMAX=   31
   IXMIN=  -94   IYMIN=  -31   IZMIN=  -31


 parallel 3D FFT for wavefunctions:
    minimum data exchange during FFTs selected (reduces bandwidth)
 parallel 3D FFT for charge:
    minimum data exchange during FFTs selected (reduces bandwidth)


 total amount of memory used by VASP MPI-rank0   207433. kBytes
=======================================================================

   base      :      30000. kBytes
   nonl-proj :       8719. kBytes
   fftplans  :      62778. kBytes
   grid      :     101176. kBytes
   one-center:          3. kBytes
   wavefun   :       4757. kBytes
 
     INWAV:  cpu time    0.0000: real time    0.0000
 Broyden mixing: mesh for mixing (old mesh)
   NGX =189   NGY = 63   NGZ = 63
  (NGX  =768   NGY  =252   NGZ  =252)
  gives a total of 750141 points

 initial charge density was supplied:
 charge density of overlapping atoms calculated
 number of electron      16.0000000 magnetization 
 keeping initial charge density in first step


--------------------------------------------------------------------------------------------------------


 Maximum index for augmentation-charges          693 (set IRDMAX)


--------------------------------------------------------------------------------------------------------


 First call to EWALD:  gamma=   0.123
 Maximum number of real-space cells 2x 4x 4
 Maximum number of reciprocal cells 5x 2x 2

    FEWALD:  cpu time    0.0013: real time    0.0013


--------------------------------------- Iteration      1(   1)  ---------------------------------------


    POTLOK:  cpu time    2.7158: real time    2.7396
    SETDIJ:  cpu time    0.0062: real time    0.0062
     EDDAV:  cpu time    3.2512: real time    3.2540
       DOS:  cpu time    0.0002: real time    0.0002
    --------------------------------------------
      LOOP:  cpu time    5.9733: real time    6.0000

 eigenvalue-minimisations  :    64
 total energy-change (2. order) : 0.1534284E+03  (-0.4720880E+03)
 number of electron      16.0000000 magnetization 
 augmentation part       16.0000000 magnetization 

 Free energy of the ion-electron system (eV)
  ---------------------------------------------------
  alpha Z        PSCENC =         0.21758540
  Ewald energy   TEWEN  =       191.56505113
  -Hartree energ DENC   =      -917.50982117
  -exchange      EXHF   =         0.00000000
  -V(xc)+E(xc)   XCENC  =        60.59466235
  PAW double counting   =       697.41634940     -699.85762974
  entropy T*S    EENTRO =        -0.00000076
  eigenvalues    EBANDS =       -93.70145893
  atomic energy  EATOM  =       914.70366869
  Solvation  Ediel_sol  =         0.00000000
  ---------------------------------------------------
  free energy    TOTEN  =       153.42840638 eV

  energy without entropy =      153.42840714  energy(sigma->0) =      153.42840676


--------------------------------------------------------------------------------------------------------




--------------------------------------- Iteration      1(   2)  ---------------------------------------


     EDDAV:  cpu time    4.3972: real time    4.4487
       DOS:  cpu time    0.0002: real time    0.0002
    --------------------------------------------
      LOOP:  cpu time    4.3974: real time    4.4489

 eigenvalue-minimisations  :    96
 total energy-change (2. order) :-0.9484776E+02  (-0.9392021E+02)
 number of electron      16.0000000 magnetization 
 augmentation part       16.0000000 magnetization 

 Free energy of the ion-electron system (eV)
  ---------------------------------------------------
  alpha Z        PSCENC =         0.21758540
  Ewald energy   TEWEN  =       191.56505113
  -Hartree energ DENC   =      -917.50982117
  -exchange      EXHF   =         0.00000000
  -V(xc)+E(xc)   XCENC  =        60.59466235
  PAW double counting   =       697.41634940     -699.85762974
  entropy T*S    EENTRO =        -0.00000075
  eigenvalues    EBANDS =      -188.54921931
  atomic energy  EATOM  =       914.70366869
  Solvation  Ediel_sol  =         0.00000000
  ---------------------------------------------------
  free energy    TOTEN  =        58.58064601 eV

  energy without entropy =       58.58064676  energy(sigma->0) =       58.58064639


--------------------------------------------------------------------------------------------------------




--------------------------------------- Iteration      1(   3)  ---------------------------------------


     EDDAV:  cpu time    3.7971: real time    3.8132
       DOS:  cpu time    0.0001: real time    0.0001
    --------------------------------------------
      LOOP:  cpu time    3.7972: real time    3.8133

 eigenvalue-minimisations  :    80
 total energy-change (2. order) :-0.7714708E+02  (-0.7618611E+02)
 number of electron      16.0000000 magnetization 
 augmentation part       16.0000000 magnetization 

 Free energy of the ion-electron system (eV)
  ---------------------------------------------------
  alpha Z        PSCENC =         0.21758540
  Ewald energy   TEWEN  =       191.56505113
  -Hartree energ DENC   =      -917.50982117
  -exchange      EXHF   =         0.00000000
  -V(xc)+E(xc)   XCENC  =        60.59466235
  PAW double counting   =       697.41634940     -699.85762974
  entropy T*S    EENTRO =        -0.00000000
  eigenvalues    EBANDS =      -265.69629525
  atomic energy  EATOM  =       914.70366869
  Solvation  Ediel_sol  =         0.00000000
  ---------------------------------------------------
  free energy    TOTEN  =       -18.56642917 eV

  energy without entropy =      -18.56642917  energy(sigma->0) =      -18.56642917


--------------------------------------------------------------------------------------------------------




--------------------------------------- Iteration      1(   4)  ---------------------------------------


     EDDAV:  cpu time    3.2149: real time    3.2298
       DOS:  cpu time    0.0001: real time    0.0001
    --------------------------------------------
      LOOP:  cpu time    3.2150: real time    3.2299

 eigenvalue-minimisations  :    64
 total energy-change (2. order) :-0.1307830E+02  (-0.1305666E+02)
 number of electron      16.0000000 magnetization 
 augmentation part       16.0000000 magnetization 

 Free energy of the ion-electron system (eV)
  ---------------------------------------------------
  alpha Z        PSCENC =         0.21758540
  Ewald energy   TEWEN  =       191.56505113
  -Hartree energ DENC   =      -917.50982117
  -exchange      EXHF   =         0.00000000
  -V(xc)+E(xc)   XCENC  =        60.59466235
  PAW double counting   =       697.41634940     -699.85762974
  entropy T*S    EENTRO =        -0.00000000
  eigenvalues    EBANDS =      -278.77459788
  atomic energy  EATOM  =       914.70366869
  Solvation  Ediel_sol  =         0.00000000
  ---------------------------------------------------
  free energy    TOTEN  =       -31.64473180 eV

  energy without entropy =      -31.64473180  energy(sigma->0) =      -31.64473180


--------------------------------------------------------------------------------------------------------




--------------------------------------- Iteration      1(   5)  ---------------------------------------


     EDDAV:  cpu time    3.2105: real time    3.2252
       DOS:  cpu time    0.0004: real time    0.0004
    CHARGE:  cpu time    0.4688: real time    0.4707
    MIXING:  cpu time    0.0581: real time    0.0583
    --------------------------------------------
      LOOP:  cpu time    3.7379: real time    3.7546

 eigenvalue-minimisations  :    64
 total energy-change (2. order) :-0.3376073E+00  (-0.3373651E+00)
 number of electron      16.0000000 magnetization 
 augmentation part        0.2010288 magnetization 

 Broyden mixing:
  rms(total) = 0.18166E+01    rms(broyden)= 0.18166E+01
  rms(prec ) = 0.18448E+01
  weight for this iteration     100.00

 Free energy of the ion-electron system (eV)
  ---------------------------------------------------
  alpha Z        PSCENC =         0.21758540
  Ewald energy   TEWEN  =       191.56505113
  -Hartree energ DENC   =      -917.50982117
  -exchange      EXHF   =         0.00000000
  -V(xc)+E(xc)   XCENC  =        60.59466235
  PAW double counting   =       697.41634940     -699.85762974
  entropy T*S    EENTRO =        -0.00000000
  eigenvalues    EBANDS =      -279.11220517
  atomic energy  EATOM  =       914.70366869
  Solvation  Ediel_sol  =         0.00000000
  ---------------------------------------------------
  free energy    TOTEN  =       -31.98233910 eV

  energy without entropy =      -31.98233910  energy(sigma->0) =      -31.98233910


--------------------------------------------------------------------------------------------------------




--------------------------------------- Iteration      1(   6)  ---------------------------------------


    POTLOK:  cpu time    2.7386: real time    2.7475
    SETDIJ:  cpu time    0.0043: real time    0.0043
    EDDIAG:  cpu time    0.6887: real time    0.6920
  RMM-DIIS:  cpu time    3.5847: real time    3.6409
    ORTHCH:  cpu time    0.0174: real time    0.0174
       DOS:  cpu time    0.0002: real time    0.0002
    CHARGE:  cpu time    0.4654: real time    0.4673
    MIXING:  cpu time    0.0569: real time    0.0570
    --------------------------------------------
      LOOP:  cpu time    7.5562: real time    7.6266

 eigenvalue-minimisations  :    64
 total energy-change (2. order) : 0.3377749E+01  (-0.1179815E+01)
 number of electron      16.0000000 magnetization 
 augmentation part        0.1279427 magnetization 

 Broyden mixing:
  rms(total) = 0.17792E+01    rms(broyden)= 0.17792E+01
  rms(prec ) = 0.17824E+01
  weight for this iteration     100.00

 eigenvalues of (default mixing * dielectric matrix)
  average eigenvalue GAMMA=   0.5210
  0.5210

 Free energy of the ion-electron system (eV)
  ---------------------------------------------------
  alpha Z        PSCENC =         0.21758540
  Ewald energy   TEWEN  =       191.56505113
  -Hartree energ DENC   =      -962.33641251
  -exchange      EXHF   =         0.00000000
  -V(xc)+E(xc)   XCENC  =        63.01783649
  PAW double counting   =      1517.32726693    -1520.35211880
  entropy T*S    EENTRO =        -0.00000000
  eigenvalues    EBANDS =      -232.74746784
  atomic energy  EATOM  =       914.70366869
  Solvation  Ediel_sol  =         0.00000000
  ---------------------------------------------------
  free energy    TOTEN  =       -28.60459049 eV

  energy without entropy =      -28.60459049  energy(sigma->0) =      -28.60459049


--------------------------------------------------------------------------------------------------------




--------------------------------------- Iteration      1(   7)  ---------------------------------------


    POTLOK:  cpu time    2.7474: real time    2.7648
    SETDIJ:  cpu time    0.0019: real time    0.0019
    EDDIAG:  cpu time    0.6571: real time    0.6628
  RMM-DIIS:  cpu time    4.2737: real time    4.2923
    ORTHCH:  cpu time    0.0180: real time    0.0181
       DOS:  cpu time    0.0003: real time    0.0003
    CHARGE:  cpu time    0.4611: real time    0.4640
    MIXING:  cpu time    0.0583: real time    0.0584
    --------------------------------------------
      LOOP:  cpu time    8.2178: real time    8.2625

 eigenvalue-minimisations  :    76
 total energy-change (2. order) : 0.6024120E-01  (-0.1288684E+00)
 number of electron      16.0000000 magnetization 
 augmentation part        0.1061042 magnetization 

 Broyden mixing:
  rms(total) = 0.15584E+01    rms(broyden)= 0.15584E+01
  rms(prec ) = 0.15603E+01
  weight for this iteration     100.00

 eigenvalues of (default mixing * dielectric matrix)
  average eigenvalue GAMMA=   1.9088
  1.9088  1.9088

 Free energy of the ion-electron system (eV)
  ---------------------------------------------------
  alpha Z        PSCENC =         0.21758540
  Ewald energy   TEWEN  =       191.56505113
  -Hartree energ DENC   =      -968.37283696
  -exchange      EXHF   =         0.00000000
  -V(xc)+E(xc)   XCENC  =        63.34690751
  PAW double counting   =      2248.17115903    -2251.20177957
  entropy T*S    EENTRO =        -0.00000000
  eigenvalues    EBANDS =      -226.97410453
  atomic energy  EATOM  =       914.70366869
  Solvation  Ediel_sol  =         0.00000000
  ---------------------------------------------------
  free energy    TOTEN  =       -28.54434929 eV

  energy without entropy =      -28.54434929  energy(sigma->0) =      -28.54434929


--------------------------------------------------------------------------------------------------------




--------------------------------------- Iteration      1(   8)  ---------------------------------------


    POTLOK:  cpu time    2.7067: real time    2.7182
    SETDIJ:  cpu time    0.0022: real time    0.0022
    EDDIAG:  cpu time    0.6686: real time    0.6717
  RMM-DIIS:  cpu time    3.6863: real time    3.7049
    ORTHCH:  cpu time    0.0173: real time    0.0173
       DOS:  cpu time    0.0003: real time    0.0003
    CHARGE:  cpu time    0.4465: real time    0.4504
    MIXING:  cpu time    0.0775: real time    0.0777
    --------------------------------------------
      LOOP:  cpu time    7.6055: real time    7.6428

 eigenvalue-minimisations  :    64
 total energy-change (2. order) :-0.8928676E+00  (-0.7027105E+00)
 number of electron      16.0000000 magnetization 
 augmentation part        0.1580073 magnetization 

 Broyden mixing:
  rms(total) = 0.11552E+01    rms(broyden)= 0.11552E+01
  rms(prec ) = 0.11674E+01
  weight for this iteration     100.00

 eigenvalues of (default mixing * dielectric matrix)
  average eigenvalue GAMMA=   1.4151
  2.2924  0.9765  0.9765

 Free energy of the ion-electron system (eV)
  ---------------------------------------------------
  alpha Z        PSCENC =         0.21758540
  Ewald energy   TEWEN  =       191.56505113
  -Hartree energ DENC   =      -953.45648734
  -exchange      EXHF   =         0.00000000
  -V(xc)+E(xc)   XCENC  =        62.55185566
  PAW double counting   =      6617.82989569    -6620.33423999
  entropy T*S    EENTRO =        -0.00000000
  eigenvalues    EBANDS =      -242.51454611
  atomic energy  EATOM  =       914.70366869
  Solvation  Ediel_sol  =         0.00000000
  ---------------------------------------------------
  free energy    TOTEN  =       -29.43721686 eV

  energy without entropy =      -29.43721686  energy(sigma->0) =      -29.43721686


--------------------------------------------------------------------------------------------------------




--------------------------------------- Iteration      1(   9)  ---------------------------------------


    POTLOK:  cpu time    2.6769: real time    2.7454
    SETDIJ:  cpu time    0.0028: real time    0.0028
    EDDIAG:  cpu time    0.6701: real time    0.6734
  RMM-DIIS:  cpu time    3.6241: real time    3.6409
    ORTHCH:  cpu time    0.0175: real time    0.0176
       DOS:  cpu time    0.0002: real time    0.0002
    CHARGE:  cpu time    0.4643: real time    0.4663
    MIXING:  cpu time    0.0606: real time    0.0607
    --------------------------------------------
      LOOP:  cpu time    7.5166: real time    7.6073

 eigenvalue-minimisations  :    64
 total energy-change (2. order) : 0.1133012E+01  (-0.2801211E+00)
 number of electron      16.0000000 magnetization 
 augmentation part        0.1261092 magnetization 

 Broyden mixing:
  rms(total) = 0.38647E+00    rms(broyden)= 0.38647E+00
  rms(prec ) = 0.38856E+00
  weight for this iteration     100.00

 eigenvalues of (default mixing * dielectric matrix)
  average eigenvalue GAMMA=   1.1122
  2.1273  0.7674  0.7674  0.7866

 Free energy of the ion-electron system (eV)
  ---------------------------------------------------
  alpha Z        PSCENC =         0.21758540
  Ewald energy   TEWEN  =       191.56505113
  -Hartree energ DENC   =      -975.85297210
  -exchange      EXHF   =         0.00000000
  -V(xc)+E(xc)   XCENC  =        63.77104359
  PAW double counting   =      5734.10178981    -5736.96090208
  entropy T*S    EENTRO =        -0.00000000
  eigenvalues    EBANDS =      -219.84946952
  atomic energy  EATOM  =       914.70366869
  Solvation  Ediel_sol  =         0.00000000
  ---------------------------------------------------
  free energy    TOTEN  =       -28.30420507 eV

  energy without entropy =      -28.30420507  energy(sigma->0) =      -28.30420507


--------------------------------------------------------------------------------------------------------




--------------------------------------- Iteration      1(  10)  ---------------------------------------


    POTLOK:  cpu time    2.7456: real time    2.7554
    SETDIJ:  cpu time    0.0033: real time    0.0033
    EDDIAG:  cpu time    0.6699: real time    0.6743
  RMM-DIIS:  cpu time    4.2946: real time    4.3162
    ORTHCH:  cpu time    0.0170: real time    0.0171
       DOS:  cpu time    0.0002: real time    0.0002
    CHARGE:  cpu time    0.4648: real time    0.4672
    MIXING:  cpu time    0.0639: real time    0.0641
    --------------------------------------------
      LOOP:  cpu time    8.2594: real time    8.2978

 eigenvalue-minimisations  :    76
 total energy-change (2. order) :-0.1553064E-01  (-0.1873743E-01)
 number of electron      16.0000000 magnetization 
 augmentation part        0.1170780 magnetization 

 Broyden mixing:
  rms(total) = 0.18160E+00    rms(broyden)= 0.18160E+00
  rms(prec ) = 0.18343E+00
  weight for this iteration     100.00

 eigenvalues of (default mixing * dielectric matrix)
  average eigenvalue GAMMA=   1.3259
  1.9138  1.9138  0.9761  0.9128  0.9128

 Free energy of the ion-electron system (eV)
  ---------------------------------------------------
  alpha Z        PSCENC =         0.21758540
  Ewald energy   TEWEN  =       191.56505113
  -Hartree energ DENC   =      -976.14467886
  -exchange      EXHF   =         0.00000000
  -V(xc)+E(xc)   XCENC  =        63.77773967
  PAW double counting   =      5459.29721599    -5462.16237671
  entropy T*S    EENTRO =        -0.00000000
  eigenvalues    EBANDS =      -219.57394102
  atomic energy  EATOM  =       914.70366869
  Solvation  Ediel_sol  =         0.00000000
  ---------------------------------------------------
  free energy    TOTEN  =       -28.31973571 eV

  energy without entropy =      -28.31973571  energy(sigma->0) =      -28.31973571


--------------------------------------------------------------------------------------------------------




--------------------------------------- Iteration      1(  11)  ---------------------------------------


    POTLOK:  cpu time    2.7437: real time    2.7581
    SETDIJ:  cpu time    0.0017: real time    0.0017
    EDDIAG:  cpu time    0.6718: real time    0.6747
  RMM-DIIS:  cpu time    4.0420: real time    4.0461
    ORTHCH:  cpu time    0.0182: real time    0.0182
       DOS:  cpu time    0.0002: real time    0.0002
    CHARGE:  cpu time    0.4663: real time    0.4668
    MIXING:  cpu time    0.0641: real time    0.0642
    --------------------------------------------
      LOOP:  cpu time    8.0080: real time    8.0301

 eigenvalue-minimisations  :    72
 total energy-change (2. order) : 0.2928598E-02  (-0.1670906E-02)
 number of electron      16.0000000 magnetization 
 augmentation part        0.1150776 magnetization 

 Broyden mixing:
  rms(total) = 0.70336E-01    rms(broyden)= 0.70336E-01
  rms(prec ) = 0.72444E-01
  weight for this iteration     100.00

 eigenvalues of (default mixing * dielectric matrix)
  average eigenvalue GAMMA=   1.4858
  2.6493  2.6493  0.9683  0.9683  0.8397  0.8397

 Free energy of the ion-electron system (eV)
  ---------------------------------------------------
  alpha Z        PSCENC =         0.21758540
  Ewald energy   TEWEN  =       191.56505113
  -Hartree energ DENC   =      -978.25982769
  -exchange      EXHF   =         0.00000000
  -V(xc)+E(xc)   XCENC  =        63.86359590
  PAW double counting   =      5143.38176687    -5146.25228666
  entropy T*S    EENTRO =        -0.00000000
  eigenvalues    EBANDS =      -217.53636076
  atomic energy  EATOM  =       914.70366869
  Solvation  Ediel_sol  =         0.00000000
  ---------------------------------------------------
  free energy    TOTEN  =       -28.31680711 eV

  energy without entropy =      -28.31680711  energy(sigma->0) =      -28.31680711


--------------------------------------------------------------------------------------------------------




--------------------------------------- Iteration      1(  12)  ---------------------------------------


    POTLOK:  cpu time    2.7292: real time    2.7311
    SETDIJ:  cpu time    0.0028: real time    0.0028
    EDDIAG:  cpu time    0.6689: real time    0.6696
  RMM-DIIS:  cpu time    3.6164: real time    3.6196
    ORTHCH:  cpu time    0.0181: real time    0.0181
       DOS:  cpu time    0.0003: real time    0.0003
    CHARGE:  cpu time    0.4659: real time    0.4664
    MIXING:  cpu time    0.0671: real time    0.0671
    --------------------------------------------
      LOOP:  cpu time    7.5688: real time    7.5749

 eigenvalue-minimisations  :    64
 total energy-change (2. order) :-0.1182616E-02  (-0.7323062E-02)
 number of electron      16.0000000 magnetization 
 augmentation part        0.1100304 magnetization 

 Broyden mixing:
  rms(total) = 0.72488E-01    rms(broyden)= 0.72488E-01
  rms(prec ) = 0.73106E-01
  weight for this iteration     100.00

 eigenvalues of (default mixing * dielectric matrix)
  average eigenvalue GAMMA=   1.3921
  2.6628  2.6628  0.8346  0.8346  0.9898  0.9898  0.7701

 Free energy of the ion-electron system (eV)
  ---------------------------------------------------
  alpha Z        PSCENC =         0.21758540
  Ewald energy   TEWEN  =       191.56505113
  -Hartree energ DENC   =      -981.91233078
  -exchange      EXHF   =         0.00000000
  -V(xc)+E(xc)   XCENC  =        64.03610987
  PAW double counting   =      4914.36892444    -4917.27211971
  entropy T*S    EENTRO =        -0.00000000
  eigenvalues    EBANDS =      -214.02487877
  atomic energy  EATOM  =       914.70366869
  Solvation  Ediel_sol  =         0.00000000
  ---------------------------------------------------
  free energy    TOTEN  =       -28.31798973 eV

  energy without entropy =      -28.31798973  energy(sigma->0) =      -28.31798973


--------------------------------------------------------------------------------------------------------




--------------------------------------- Iteration      1(  13)  ---------------------------------------


    POTLOK:  cpu time    2.7288: real time    2.7307
    SETDIJ:  cpu time    0.0027: real time    0.0027
    EDDIAG:  cpu time    0.6694: real time    0.6695
  RMM-DIIS:  cpu time    4.0595: real time    4.0641
    ORTHCH:  cpu time    0.0182: real time    0.0183
       DOS:  cpu time    0.0002: real time    0.0003
    CHARGE:  cpu time    0.4650: real time    0.4652
    MIXING:  cpu time    0.0690: real time    0.0691
    --------------------------------------------
      LOOP:  cpu time    8.0130: real time    8.0198

 eigenvalue-minimisations  :    72
 total energy-change (2. order) :-0.3088561E-02  (-0.4810351E-03)
 number of electron      16.0000000 magnetization 
 augmentation part        0.1093018 magnetization 

 Broyden mixing:
  rms(total) = 0.66346E-01    rms(broyden)= 0.66346E-01
  rms(prec ) = 0.66967E-01
  weight for this iteration     100.00

 eigenvalues of (default mixing * dielectric matrix)
  average eigenvalue GAMMA=   1.5857
  3.4282  2.7540  1.8363  0.8763  0.8763  1.2364  0.8392  0.8392

 Free energy of the ion-electron system (eV)
  ---------------------------------------------------
  alpha Z        PSCENC =         0.21758540
  Ewald energy   TEWEN  =       191.56505113
  -Hartree energ DENC   =      -981.82173569
  -exchange      EXHF   =         0.00000000
  -V(xc)+E(xc)   XCENC  =        64.02356197
  PAW double counting   =      4965.17490294    -4968.07317509
  entropy T*S    EENTRO =        -0.00000000
  eigenvalues    EBANDS =      -214.11093764
  atomic energy  EATOM  =       914.70366869
  Solvation  Ediel_sol  =         0.00000000
  ---------------------------------------------------
  free energy    TOTEN  =       -28.32107829 eV

  energy without entropy =      -28.32107829  energy(sigma->0) =      -28.32107829


--------------------------------------------------------------------------------------------------------




--------------------------------------- Iteration      1(  14)  ---------------------------------------


    POTLOK:  cpu time    2.7364: real time    2.7393
    SETDIJ:  cpu time    0.0028: real time    0.0028
    EDDIAG:  cpu time    0.6703: real time    0.6707
  RMM-DIIS:  cpu time    3.3814: real time    3.3832
    ORTHCH:  cpu time    0.0186: real time    0.0186
       DOS:  cpu time    0.0002: real time    0.0002
    CHARGE:  cpu time    0.4634: real time    0.4637
    MIXING:  cpu time    0.0754: real time    0.0755
    --------------------------------------------
      LOOP:  cpu time    7.3485: real time    7.3540

 eigenvalue-minimisations  :    60
 total energy-change (2. order) :-0.1085103E-01  (-0.4782208E-03)
 number of electron      16.0000000 magnetization 
 augmentation part        0.1084824 magnetization 

 Broyden mixing:
  rms(total) = 0.54972E-01    rms(broyden)= 0.54972E-01
  rms(prec ) = 0.55728E-01
  weight for this iteration     100.00

 eigenvalues of (default mixing * dielectric matrix)
  average eigenvalue GAMMA=   1.6183
  4.1536  2.5307  2.5307  0.8529  0.8529  1.0338  1.0338  0.7883  0.7883

 Free energy of the ion-electron system (eV)
  ---------------------------------------------------
  alpha Z        PSCENC =         0.21758540
  Ewald energy   TEWEN  =       191.56505113
  -Hartree energ DENC   =      -982.72524270
  -exchange      EXHF   =         0.00000000
  -V(xc)+E(xc)   XCENC  =        64.04479299
  PAW double counting   =      5021.29926458    -5024.20090467
  entropy T*S    EENTRO =        -0.00000000
  eigenvalues    EBANDS =      -213.23614474
  atomic energy  EATOM  =       914.70366869
  Solvation  Ediel_sol  =         0.00000000
  ---------------------------------------------------
  free energy    TOTEN  =       -28.33192931 eV

  energy without entropy =      -28.33192931  energy(sigma->0) =      -28.33192931


--------------------------------------------------------------------------------------------------------




--------------------------------------- Iteration      1(  15)  ---------------------------------------


    POTLOK:  cpu time    2.7184: real time    2.7299
    SETDIJ:  cpu time    0.0019: real time    0.0019
    EDDIAG:  cpu time    0.6691: real time    0.6695
  RMM-DIIS:  cpu time    3.6180: real time    3.6214
    ORTHCH:  cpu time    0.0203: real time    0.0216
       DOS:  cpu time    0.0004: real time    0.0004
    CHARGE:  cpu time    0.4652: real time    0.4654
    MIXING:  cpu time    0.0740: real time    0.0740
    --------------------------------------------
      LOOP:  cpu time    7.5674: real time    7.5842

 eigenvalue-minimisations  :    64
 total energy-change (2. order) :-0.6479295E-03  (-0.2800247E-03)
 number of electron      16.0000000 magnetization 
 augmentation part        0.1093233 magnetization 

 Broyden mixing:
  rms(total) = 0.19488E-01    rms(broyden)= 0.19488E-01
  rms(prec ) = 0.20415E-01
  weight for this iteration     100.00

 eigenvalues of (default mixing * dielectric matrix)
  average eigenvalue GAMMA=   1.6420
  4.4198  2.5689  2.5689  1.3249  1.3249  0.8727  0.8727  0.8895  0.7888  0.7888

 Free energy of the ion-electron system (eV)
  ---------------------------------------------------
  alpha Z        PSCENC =         0.21758540
  Ewald energy   TEWEN  =       191.56505113
  -Hartree energ DENC   =      -982.17722671
  -exchange      EXHF   =         0.00000000
  -V(xc)+E(xc)   XCENC  =        64.00942503
  PAW double counting   =      5082.95276816    -5085.84407657
  entropy T*S    EENTRO =        -0.00000000
  eigenvalues    EBANDS =      -213.75977237
  atomic energy  EATOM  =       914.70366869
  Solvation  Ediel_sol  =         0.00000000
  ---------------------------------------------------
  free energy    TOTEN  =       -28.33257724 eV

  energy without entropy =      -28.33257724  energy(sigma->0) =      -28.33257724


--------------------------------------------------------------------------------------------------------




--------------------------------------- Iteration      1(  16)  ---------------------------------------


    POTLOK:  cpu time    2.6878: real time    2.6895
    SETDIJ:  cpu time    0.0026: real time    0.0026
    EDDIAG:  cpu time    0.6632: real time    0.6633
  RMM-DIIS:  cpu time    3.5499: real time    3.7199
    ORTHCH:  cpu time    0.0159: real time    0.0159
       DOS:  cpu time    0.0002: real time    0.0002
    CHARGE:  cpu time    0.4666: real time    0.4680
    MIXING:  cpu time    0.0820: real time    0.0820
    --------------------------------------------
      LOOP:  cpu time    7.4682: real time    7.6415

 eigenvalue-minimisations  :    64
 total energy-change (2. order) :-0.2684383E-02  (-0.9977447E-03)
 number of electron      16.0000000 magnetization 
 augmentation part        0.1111279 magnetization 

 Broyden mixing:
  rms(total) = 0.20629E-01    rms(broyden)= 0.20629E-01
  rms(prec ) = 0.21168E-01
  weight for this iteration     100.00

 eigenvalues of (default mixing * dielectric matrix)
  average eigenvalue GAMMA=   1.8204
  5.2066  3.2026  2.8991  1.8862  1.4798  0.8670  0.8670  1.0353  1.0353  0.7727
  0.7727

 Free energy of the ion-electron system (eV)
  ---------------------------------------------------
  alpha Z        PSCENC =         0.21758540
  Ewald energy   TEWEN  =       191.56505113
  -Hartree energ DENC   =      -981.30184043
  -exchange      EXHF   =         0.00000000
  -V(xc)+E(xc)   XCENC  =        63.95540211
  PAW double counting   =      5097.46199106    -5100.33984711
  entropy T*S    EENTRO =        -0.00000000
  eigenvalues    EBANDS =      -214.59727248
  atomic energy  EATOM  =       914.70366869
  Solvation  Ediel_sol  =         0.00000000
  ---------------------------------------------------
  free energy    TOTEN  =       -28.33526163 eV

  energy without entropy =      -28.33526163  energy(sigma->0) =      -28.33526163


--------------------------------------------------------------------------------------------------------




--------------------------------------- Iteration      1(  17)  ---------------------------------------


    POTLOK:  cpu time    2.6962: real time    2.7036
    SETDIJ:  cpu time    0.0022: real time    0.0022
    EDDIAG:  cpu time    0.6631: real time    0.6646
  RMM-DIIS:  cpu time    4.1039: real time    4.1064
    ORTHCH:  cpu time    0.0167: real time    0.0167
       DOS:  cpu time    0.0002: real time    0.0002
    CHARGE:  cpu time    0.4559: real time    0.4631
    MIXING:  cpu time    0.0835: real time    0.0835
    --------------------------------------------
      LOOP:  cpu time    8.0218: real time    8.0403

 eigenvalue-minimisations  :    72
 total energy-change (2. order) :-0.2531123E-02  (-0.2780932E-03)
 number of electron      16.0000000 magnetization 
 augmentation part        0.1121727 magnetization 

 Broyden mixing:
  rms(total) = 0.34635E-01    rms(broyden)= 0.34635E-01
  rms(prec ) = 0.35192E-01
  weight for this iteration     100.00

 eigenvalues of (default mixing * dielectric matrix)
  average eigenvalue GAMMA=   1.7317
  5.5377  3.1148  2.6579  1.7076  1.7076  0.8680  0.8680  1.0803  1.0803  0.7599
  0.7599  0.6383

 Free energy of the ion-electron system (eV)
  ---------------------------------------------------
  alpha Z        PSCENC =         0.21758540
  Ewald energy   TEWEN  =       191.56505113
  -Hartree energ DENC   =      -981.07212719
  -exchange      EXHF   =         0.00000000
  -V(xc)+E(xc)   XCENC  =        63.93618441
  PAW double counting   =      5094.59901320    -5097.47330433
  entropy T*S    EENTRO =        -0.00000000
  eigenvalues    EBANDS =      -214.81386407
  atomic energy  EATOM  =       914.70366869
  Solvation  Ediel_sol  =         0.00000000
  ---------------------------------------------------
  free energy    TOTEN  =       -28.33779275 eV

  energy without entropy =      -28.33779275  energy(sigma->0) =      -28.33779275


--------------------------------------------------------------------------------------------------------




--------------------------------------- Iteration      1(  18)  ---------------------------------------


    POTLOK:  cpu time    2.7138: real time    2.7159
    SETDIJ:  cpu time    0.0025: real time    0.0025
    EDDIAG:  cpu time    0.6651: real time    0.6652
  RMM-DIIS:  cpu time    3.6179: real time    3.6187
    ORTHCH:  cpu time    0.0174: real time    0.0174
       DOS:  cpu time    0.0002: real time    0.0002
    CHARGE:  cpu time    0.4653: real time    0.4654
    MIXING:  cpu time    0.0943: real time    0.0943
    --------------------------------------------
      LOOP:  cpu time    7.5764: real time    7.5795

 eigenvalue-minimisations  :    64
 total energy-change (2. order) : 0.4083467E-03  (-0.7925366E-04)
 number of electron      16.0000000 magnetization 
 augmentation part        0.1116543 magnetization 

 Broyden mixing:
  rms(total) = 0.23219E-01    rms(broyden)= 0.23219E-01
  rms(prec ) = 0.23696E-01
  weight for this iteration     100.00

 eigenvalues of (default mixing * dielectric matrix)
  average eigenvalue GAMMA=   1.8203
  6.5186  2.7413  2.3834  2.3834  2.1256  1.6881  0.8703  0.8703  0.9740  0.8215
  0.8215  0.8004  0.6651

 Free energy of the ion-electron system (eV)
  ---------------------------------------------------
  alpha Z        PSCENC =         0.21758540
  Ewald energy   TEWEN  =       191.56505113
  -Hartree energ DENC   =      -981.42524070
  -exchange      EXHF   =         0.00000000
  -V(xc)+E(xc)   XCENC  =        63.95419541
  PAW double counting   =      5086.01879291    -5088.89786016
  entropy T*S    EENTRO =        -0.00000000
  eigenvalues    EBANDS =      -214.47357709
  atomic energy  EATOM  =       914.70366869
  Solvation  Ediel_sol  =         0.00000000
  ---------------------------------------------------
  free energy    TOTEN  =       -28.33738440 eV

  energy without entropy =      -28.33738440  energy(sigma->0) =      -28.33738440


--------------------------------------------------------------------------------------------------------




--------------------------------------- Iteration      1(  19)  ---------------------------------------


    POTLOK:  cpu time    2.6857: real time    2.6920
    SETDIJ:  cpu time    0.0021: real time    0.0021
    EDDIAG:  cpu time    0.6583: real time    0.6588
  RMM-DIIS:  cpu time    3.4315: real time    3.4322
    ORTHCH:  cpu time    0.0164: real time    0.0164
       DOS:  cpu time    0.0002: real time    0.0002
    CHARGE:  cpu time    0.4682: real time    0.4683
    MIXING:  cpu time    0.0923: real time    0.0923
    --------------------------------------------
      LOOP:  cpu time    7.3549: real time    7.3624

 eigenvalue-minimisations  :    60
 total energy-change (2. order) :-0.2571778E-03  (-0.5478923E-03)
 number of electron      16.0000000 magnetization 
 augmentation part        0.1102748 magnetization 

 Broyden mixing:
  rms(total) = 0.11401E-01    rms(broyden)= 0.11401E-01
  rms(prec ) = 0.11972E-01
  weight for this iteration     100.00

 eigenvalues of (default mixing * dielectric matrix)
  average eigenvalue GAMMA=   1.8172
  6.8785  2.9345  2.6937  2.6937  1.7684  1.7684  0.8700  0.8700  0.9391  0.9391
  0.8430  0.8430  0.8259  0.5733

 Free energy of the ion-electron system (eV)
  ---------------------------------------------------
  alpha Z        PSCENC =         0.21758540
  Ewald energy   TEWEN  =       191.56505113
  -Hartree energ DENC   =      -982.15620991
  -exchange      EXHF   =         0.00000000
  -V(xc)+E(xc)   XCENC  =        63.99184774
  PAW double counting   =      5051.49633142    -5054.38496330
  entropy T*S    EENTRO =        -0.00000000
  eigenvalues    EBANDS =      -213.77095276
  atomic energy  EATOM  =       914.70366869
  Solvation  Ediel_sol  =         0.00000000
  ---------------------------------------------------
  free energy    TOTEN  =       -28.33764158 eV

  energy without entropy =      -28.33764158  energy(sigma->0) =      -28.33764158


--------------------------------------------------------------------------------------------------------




--------------------------------------- Iteration      1(  20)  ---------------------------------------


    POTLOK:  cpu time    2.6664: real time    2.6684
    SETDIJ:  cpu time    0.0036: real time    0.0036
    EDDIAG:  cpu time    0.6653: real time    0.6657
  RMM-DIIS:  cpu time    3.8585: real time    3.8607
    ORTHCH:  cpu time    0.0165: real time    0.0165
       DOS:  cpu time    0.0002: real time    0.0002
    CHARGE:  cpu time    0.4631: real time    0.4634
    MIXING:  cpu time    0.0973: real time    0.0974
    --------------------------------------------
      LOOP:  cpu time    7.7710: real time    7.7759

 eigenvalue-minimisations  :    68
 total energy-change (2. order) :-0.2160154E-03  (-0.8388266E-04)
 number of electron      16.0000000 magnetization 
 augmentation part        0.1096839 magnetization 

 Broyden mixing:
  rms(total) = 0.23396E-01    rms(broyden)= 0.23396E-01
  rms(prec ) = 0.23760E-01
  weight for this iteration     100.00

 eigenvalues of (default mixing * dielectric matrix)
  average eigenvalue GAMMA=   1.8444
  7.3247  3.2542  2.6573  2.6573  1.9588  1.9588  0.8702  0.8702  1.0782  1.0782
  0.8852  0.8852  0.7895  0.7895  0.6084

 Free energy of the ion-electron system (eV)
  ---------------------------------------------------
  alpha Z        PSCENC =         0.21758540
  Ewald energy   TEWEN  =       191.56505113
  -Hartree energ DENC   =      -982.21232152
  -exchange      EXHF   =         0.00000000
  -V(xc)+E(xc)   XCENC  =        63.99425605
  PAW double counting   =      5036.86812347    -5039.75738226
  entropy T*S    EENTRO =        -0.00000000
  eigenvalues    EBANDS =      -213.71683857
  atomic energy  EATOM  =       914.70366869
  Solvation  Ediel_sol  =         0.00000000
  ---------------------------------------------------
  free energy    TOTEN  =       -28.33785760 eV

  energy without entropy =      -28.33785760  energy(sigma->0) =      -28.33785760


--------------------------------------------------------------------------------------------------------




--------------------------------------- Iteration      1(  21)  ---------------------------------------


    POTLOK:  cpu time    2.6568: real time    2.6612
    SETDIJ:  cpu time    0.0022: real time    0.0022
    EDDIAG:  cpu time    0.6714: real time    0.6723
  RMM-DIIS:  cpu time    3.3526: real time    3.3603
    ORTHCH:  cpu time    0.0193: real time    0.0194
       DOS:  cpu time    0.0003: real time    0.0003
    CHARGE:  cpu time    0.5026: real time    0.5031
    MIXING:  cpu time    0.1078: real time    0.1078
    --------------------------------------------
      LOOP:  cpu time    7.3130: real time    7.3266

 eigenvalue-minimisations  :    58
 total energy-change (2. order) : 0.2146813E-03  (-0.3636428E-04)
 number of electron      16.0000000 magnetization 
 augmentation part        0.1100216 magnetization 

 Broyden mixing:
  rms(total) = 0.16634E-01    rms(broyden)= 0.16634E-01
  rms(prec ) = 0.16918E-01
  weight for this iteration     100.00

 eigenvalues of (default mixing * dielectric matrix)
  average eigenvalue GAMMA=   1.9840
  8.0262  4.4500  2.6866  2.6179  2.6179  1.7504  1.7504  0.8701  0.8701  1.0297
  1.0297  0.8301  0.8301  0.8889  0.8889  0.6069

 Free energy of the ion-electron system (eV)
  ---------------------------------------------------
  alpha Z        PSCENC =         0.21758540
  Ewald energy   TEWEN  =       191.56505113
  -Hartree energ DENC   =      -982.00229774
  -exchange      EXHF   =         0.00000000
  -V(xc)+E(xc)   XCENC  =        63.98224527
  PAW double counting   =      5042.23367993    -5045.12040929
  entropy T*S    EENTRO =        -0.00000000
  eigenvalues    EBANDS =      -213.91716631
  atomic energy  EATOM  =       914.70366869
  Solvation  Ediel_sol  =         0.00000000
  ---------------------------------------------------
  free energy    TOTEN  =       -28.33764292 eV

  energy without entropy =      -28.33764292  energy(sigma->0) =      -28.33764292


--------------------------------------------------------------------------------------------------------




--------------------------------------- Iteration      1(  22)  ---------------------------------------


    POTLOK:  cpu time    2.6880: real time    2.6919
    SETDIJ:  cpu time    0.0033: real time    0.0033
    EDDIAG:  cpu time    0.6711: real time    0.6720
  RMM-DIIS:  cpu time    3.9602: real time    3.9662
    ORTHCH:  cpu time    0.0190: real time    0.0190
       DOS:  cpu time    0.0002: real time    0.0003
    CHARGE:  cpu time    0.4663: real time    0.4683
    MIXING:  cpu time    0.1067: real time    0.1068
    --------------------------------------------
      LOOP:  cpu time    7.9148: real time    7.9276

 eigenvalue-minimisations  :    70
 total energy-change (2. order) : 0.4067054E-03  (-0.3139599E-04)
 number of electron      16.0000000 magnetization 
 augmentation part        0.1103697 magnetization 

 Broyden mixing:
  rms(total) = 0.30430E-02    rms(broyden)= 0.30430E-02
  rms(prec ) = 0.36897E-02
  weight for this iteration     100.00

 eigenvalues of (default mixing * dielectric matrix)
  average eigenvalue GAMMA=   2.0863
  8.9477  5.4906  2.9671  2.6270  2.6270  1.9631  1.9631  0.8702  0.8702  1.1217
  1.1217  0.8818  0.8818  0.9086  0.8109  0.8109  0.6041

 Free energy of the ion-electron system (eV)
  ---------------------------------------------------
  alpha Z        PSCENC =         0.21758540
  Ewald energy   TEWEN  =       191.56505113
  -Hartree energ DENC   =      -981.90794838
  -exchange      EXHF   =         0.00000000
  -V(xc)+E(xc)   XCENC  =        63.97720740
  PAW double counting   =      5073.43340562    -5076.31868063
  entropy T*S    EENTRO =        -0.00000000
  eigenvalues    EBANDS =      -214.00752545
  atomic energy  EATOM  =       914.70366869
  Solvation  Ediel_sol  =         0.00000000
  ---------------------------------------------------
  free energy    TOTEN  =       -28.33723621 eV

  energy without entropy =      -28.33723621  energy(sigma->0) =      -28.33723621


--------------------------------------------------------------------------------------------------------




--------------------------------------- Iteration      1(  23)  ---------------------------------------


    POTLOK:  cpu time    2.6829: real time    2.6911
    SETDIJ:  cpu time    0.0025: real time    0.0025
    EDDIAG:  cpu time    0.6729: real time    0.6738
  RMM-DIIS:  cpu time    3.5296: real time    3.5347
    ORTHCH:  cpu time    0.0182: real time    0.0182
       DOS:  cpu time    0.0002: real time    0.0002
    CHARGE:  cpu time    0.4670: real time    0.4675
    MIXING:  cpu time    0.1178: real time    0.1179
    --------------------------------------------
      LOOP:  cpu time    7.4911: real time    7.5059

 eigenvalue-minimisations  :    62
 total energy-change (2. order) :-0.1084372E-03  (-0.3840286E-05)
 number of electron      16.0000000 magnetization 
 augmentation part        0.1102948 magnetization 

 Broyden mixing:
  rms(total) = 0.64542E-02    rms(broyden)= 0.64542E-02
  rms(prec ) = 0.66869E-02
  weight for this iteration     100.00

 eigenvalues of (default mixing * dielectric matrix)
  average eigenvalue GAMMA=   2.4030
 11.9954  6.8860  3.4814  3.0659  3.0659  2.4361  1.7459  1.7459  0.8702  0.8702
  1.0973  1.0094  1.0094  0.8438  0.8438  0.8412  0.8412  0.6052

 Free energy of the ion-electron system (eV)
  ---------------------------------------------------
  alpha Z        PSCENC =         0.21758540
  Ewald energy   TEWEN  =       191.56505113
  -Hartree energ DENC   =      -981.95318754
  -exchange      EXHF   =         0.00000000
  -V(xc)+E(xc)   XCENC  =        63.97879843
  PAW double counting   =      5061.29521440    -5064.18114529
  entropy T*S    EENTRO =        -0.00000000
  eigenvalues    EBANDS =      -213.96332988
  atomic energy  EATOM  =       914.70366869
  Solvation  Ediel_sol  =         0.00000000
  ---------------------------------------------------
  free energy    TOTEN  =       -28.33734465 eV

  energy without entropy =      -28.33734465  energy(sigma->0) =      -28.33734465


--------------------------------------------------------------------------------------------------------




--------------------------------------- Iteration      1(  24)  ---------------------------------------


    POTLOK:  cpu time    2.6827: real time    2.6889
    SETDIJ:  cpu time    0.0017: real time    0.0017
    EDDIAG:  cpu time    0.6998: real time    0.7088
  RMM-DIIS:  cpu time    3.4673: real time    3.4866
    ORTHCH:  cpu time    0.0173: real time    0.0174
       DOS:  cpu time    0.0003: real time    0.0003
    CHARGE:  cpu time    0.4672: real time    0.4675
    MIXING:  cpu time    0.1194: real time    0.1195
    --------------------------------------------
      LOOP:  cpu time    7.4555: real time    7.4907

 eigenvalue-minimisations  :    60
 total energy-change (2. order) :-0.3864228E-03  (-0.1466765E-03)
 number of electron      16.0000000 magnetization 
 augmentation part        0.1109782 magnetization 

 Broyden mixing:
  rms(total) = 0.11702E-01    rms(broyden)= 0.11702E-01
  rms(prec ) = 0.11843E-01
  weight for this iteration     100.00

 eigenvalues of (default mixing * dielectric matrix)
  average eigenvalue GAMMA=   2.6485
 16.8156  7.5960  4.2308  2.6792  2.6792  2.3497  1.9887  1.9887  0.8702  0.8702
  1.1588  1.1588  1.0186  0.8331  0.8331  0.8849  0.8849  0.8753  0.6059

 Free energy of the ion-electron system (eV)
  ---------------------------------------------------
  alpha Z        PSCENC =         0.21758540
  Ewald energy   TEWEN  =       191.56505113
  -Hartree energ DENC   =      -981.56433484
  -exchange      EXHF   =         0.00000000
  -V(xc)+E(xc)   XCENC  =        63.95662847
  PAW double counting   =      5079.30347155    -5082.18365063
  entropy T*S    EENTRO =        -0.00000000
  eigenvalues    EBANDS =      -214.33615085
  atomic energy  EATOM  =       914.70366869
  Solvation  Ediel_sol  =         0.00000000
  ---------------------------------------------------
  free energy    TOTEN  =       -28.33773107 eV

  energy without entropy =      -28.33773107  energy(sigma->0) =      -28.33773107


--------------------------------------------------------------------------------------------------------




--------------------------------------- Iteration      1(  25)  ---------------------------------------


    POTLOK:  cpu time    2.6825: real time    2.6879
    SETDIJ:  cpu time    0.0019: real time    0.0019
    EDDIAG:  cpu time    0.6591: real time    0.6598
  RMM-DIIS:  cpu time    3.6195: real time    3.6287
    ORTHCH:  cpu time    0.0174: real time    0.0174
       DOS:  cpu time    0.0002: real time    0.0002
    CHARGE:  cpu time    0.4699: real time    0.4704
    MIXING:  cpu time    0.1271: real time    0.1272
    --------------------------------------------
      LOOP:  cpu time    7.5776: real time    7.5935

 eigenvalue-minimisations  :    64
 total energy-change (2. order) :-0.2286267E-03  (-0.8340282E-05)
 number of electron      16.0000000 magnetization 
 augmentation part        0.1110622 magnetization 

 Broyden mixing:
  rms(total) = 0.12333E-01    rms(broyden)= 0.12333E-01
  rms(prec ) = 0.12450E-01
  weight for this iteration     100.00

 eigenvalues of (default mixing * dielectric matrix)
  average eigenvalue GAMMA=   2.7940
 20.4864  7.7474  4.6085  2.6248  2.4445  2.4445  2.2054  1.9327  1.6284  0.8702
  0.8702  1.2441  0.9571  0.9571  0.9456  0.8276  0.8276  0.8264  0.8264  0.6057

 Free energy of the ion-electron system (eV)
  ---------------------------------------------------
  alpha Z        PSCENC =         0.21758540
  Ewald energy   TEWEN  =       191.56505113
  -Hartree energ DENC   =      -981.62292912
  -exchange      EXHF   =         0.00000000
  -V(xc)+E(xc)   XCENC  =        63.95963141
  PAW double counting   =      5078.43872481    -5081.31973681
  entropy T*S    EENTRO =        -0.00000000
  eigenvalues    EBANDS =      -214.27995522
  atomic energy  EATOM  =       914.70366869
  Solvation  Ediel_sol  =         0.00000000
  ---------------------------------------------------
  free energy    TOTEN  =       -28.33795970 eV

  energy without entropy =      -28.33795970  energy(sigma->0) =      -28.33795970


--------------------------------------------------------------------------------------------------------




--------------------------------------- Iteration      1(  26)  ---------------------------------------


    POTLOK:  cpu time    2.6692: real time    2.6724
    SETDIJ:  cpu time    0.0038: real time    0.0039
    EDDIAG:  cpu time    0.6674: real time    0.6682
  RMM-DIIS:  cpu time    3.1988: real time    3.2051
    ORTHCH:  cpu time    0.0161: real time    0.0162
       DOS:  cpu time    0.0002: real time    0.0002
    CHARGE:  cpu time    0.4649: real time    0.4654
    MIXING:  cpu time    0.1341: real time    0.1343
    --------------------------------------------
      LOOP:  cpu time    7.1546: real time    7.1657

 eigenvalue-minimisations  :    56
 total energy-change (2. order) :-0.8932563E-04  (-0.3086969E-04)
 number of electron      16.0000000 magnetization 
 augmentation part        0.1107477 magnetization 

 Broyden mixing:
  rms(total) = 0.23880E-02    rms(broyden)= 0.23880E-02
  rms(prec ) = 0.24860E-02
  weight for this iteration     100.00

 eigenvalues of (default mixing * dielectric matrix)
  average eigenvalue GAMMA=   3.2381
 29.1320  8.0174  5.3108  2.7595  2.7595  2.7591  2.2303  1.9663  1.9663  0.8702
  0.8702  1.2224  1.1757  1.1757  0.8358  0.8358  0.8761  0.8761  0.9225  0.8332
  0.6057

 Free energy of the ion-electron system (eV)
  ---------------------------------------------------
  alpha Z        PSCENC =         0.21758540
  Ewald energy   TEWEN  =       191.56505113
  -Hartree energ DENC   =      -981.81696831
  -exchange      EXHF   =         0.00000000
  -V(xc)+E(xc)   XCENC  =        63.97018970
  PAW double counting   =      5064.98742353    -5067.87104495
  entropy T*S    EENTRO =        -0.00000000
  eigenvalues    EBANDS =      -214.09395422
  atomic energy  EATOM  =       914.70366869
  Solvation  Ediel_sol  =         0.00000000
  ---------------------------------------------------
  free energy    TOTEN  =       -28.33804902 eV

  energy without entropy =      -28.33804902  energy(sigma->0) =      -28.33804902


--------------------------------------------------------------------------------------------------------




--------------------------------------- Iteration      1(  27)  ---------------------------------------


    POTLOK:  cpu time    2.6581: real time    2.6616
    SETDIJ:  cpu time    0.0020: real time    0.0020
    EDDIAG:  cpu time    0.6677: real time    0.6686
  RMM-DIIS:  cpu time    3.1958: real time    3.1993
    ORTHCH:  cpu time    0.0169: real time    0.0169
       DOS:  cpu time    0.0002: real time    0.0002
    CHARGE:  cpu time    0.4670: real time    0.4675
    MIXING:  cpu time    0.1392: real time    0.1395
    --------------------------------------------
      LOOP:  cpu time    7.1469: real time    7.1555

 eigenvalue-minimisations  :    56
 total energy-change (2. order) :-0.2436412E-03  (-0.4320133E-04)
 number of electron      16.0000000 magnetization 
 augmentation part        0.1103501 magnetization 

 Broyden mixing:
  rms(total) = 0.63220E-02    rms(broyden)= 0.63220E-02
  rms(prec ) = 0.63916E-02
  weight for this iteration     100.00

 eigenvalues of (default mixing * dielectric matrix)
  average eigenvalue GAMMA=   3.4134
 34.3545  8.2048  5.6477  3.1615  2.6159  2.6159  2.3732  2.3732  1.6205  1.6205
  0.8702  0.8702  1.0908  0.9071  0.9071  0.8874  0.8874  0.8337  0.8337  0.9655
  0.8483  0.6058

 Free energy of the ion-electron system (eV)
  ---------------------------------------------------
  alpha Z        PSCENC =         0.21758540
  Ewald energy   TEWEN  =       191.56505113
  -Hartree energ DENC   =      -981.98451578
  -exchange      EXHF   =         0.00000000
  -V(xc)+E(xc)   XCENC  =        63.97959278
  PAW double counting   =      5058.25054315    -5061.13635186
  entropy T*S    EENTRO =        -0.00000000
  eigenvalues    EBANDS =      -213.93386618
  atomic energy  EATOM  =       914.70366869
  Solvation  Ediel_sol  =         0.00000000
  ---------------------------------------------------
  free energy    TOTEN  =       -28.33829266 eV

  energy without entropy =      -28.33829266  energy(sigma->0) =      -28.33829266


--------------------------------------------------------------------------------------------------------




--------------------------------------- Iteration      1(  28)  ---------------------------------------


    POTLOK:  cpu time    2.6620: real time    2.6698
    SETDIJ:  cpu time    0.0020: real time    0.0020
    EDDIAG:  cpu time    0.6663: real time    0.6671
  RMM-DIIS:  cpu time    3.9740: real time    3.9788
    ORTHCH:  cpu time    0.0178: real time    0.0178
       DOS:  cpu time    0.0002: real time    0.0002
    CHARGE:  cpu time    0.4667: real time    0.4674
    MIXING:  cpu time    0.1505: real time    0.1507
    --------------------------------------------
      LOOP:  cpu time    7.9396: real time    7.9537

 eigenvalue-minimisations  :    70
 total energy-change (2. order) :-0.9038901E-04  (-0.6400515E-05)
 number of electron      16.0000000 magnetization 
 augmentation part        0.1101989 magnetization 

 Broyden mixing:
  rms(total) = 0.90764E-02    rms(broyden)= 0.90764E-02
  rms(prec ) = 0.91610E-02
  weight for this iteration     100.00

 eigenvalues of (default mixing * dielectric matrix)
  average eigenvalue GAMMA=   3.5291
 38.0809  8.4857  5.8980  3.8097  2.6046  2.6046  2.4511  2.0241  2.0241  0.8702
  0.8702  1.3306  1.3306  1.0292  1.0292  0.9104  0.9104  0.9723  0.8207  0.8207
  0.8429  0.8429  0.6057

 Free energy of the ion-electron system (eV)
  ---------------------------------------------------
  alpha Z        PSCENC =         0.21758540
  Ewald energy   TEWEN  =       191.56505113
  -Hartree energ DENC   =      -981.99851492
  -exchange      EXHF   =         0.00000000
  -V(xc)+E(xc)   XCENC  =        63.98055522
  PAW double counting   =      5056.67446440    -5059.56055834
  entropy T*S    EENTRO =        -0.00000000
  eigenvalues    EBANDS =      -213.92063464
  atomic energy  EATOM  =       914.70366869
  Solvation  Ediel_sol  =         0.00000000
  ---------------------------------------------------
  free energy    TOTEN  =       -28.33838305 eV

  energy without entropy =      -28.33838305  energy(sigma->0) =      -28.33838305


--------------------------------------------------------------------------------------------------------




--------------------------------------- Iteration      1(  29)  ---------------------------------------


    POTLOK:  cpu time    2.6998: real time    2.7026
    SETDIJ:  cpu time    0.0027: real time    0.0027
    EDDIAG:  cpu time    0.6720: real time    0.6724
  RMM-DIIS:  cpu time    3.3131: real time    3.3154
    ORTHCH:  cpu time    0.0165: real time    0.0166
       DOS:  cpu time    0.0002: real time    0.0002
    CHARGE:  cpu time    0.4663: real time    0.4668
    MIXING:  cpu time    0.1545: real time    0.1547
    --------------------------------------------
      LOOP:  cpu time    7.3252: real time    7.3314

 eigenvalue-minimisations  :    58
 total energy-change (2. order) :-0.3573892E-04  (-0.9383710E-05)
 number of electron      16.0000000 magnetization 
 augmentation part        0.1103800 magnetization 

 Broyden mixing:
  rms(total) = 0.41524E-02    rms(broyden)= 0.41524E-02
  rms(prec ) = 0.41964E-02
  weight for this iteration     100.00

 eigenvalues of (default mixing * dielectric matrix)
  average eigenvalue GAMMA=   3.7234
 42.6357  8.9668  6.3148  4.4210  2.6076  2.6076  2.6047  2.2482  2.2482  1.4329
  1.4329  0.8702  0.8702  1.2376  1.0651  1.0651  0.9165  0.9165  0.8256  0.8256
  0.9099  0.8660  0.8660  0.6058

 Free energy of the ion-electron system (eV)
  ---------------------------------------------------
  alpha Z        PSCENC =         0.21758540
  Ewald energy   TEWEN  =       191.56505113
  -Hartree energ DENC   =      -981.88084312
  -exchange      EXHF   =         0.00000000
  -V(xc)+E(xc)   XCENC  =        63.97441563
  PAW double counting   =      5063.07599905    -5065.96076234
  entropy T*S    EENTRO =        -0.00000000
  eigenvalues    EBANDS =      -214.03353323
  atomic energy  EATOM  =       914.70366869
  Solvation  Ediel_sol  =         0.00000000
  ---------------------------------------------------
  free energy    TOTEN  =       -28.33841879 eV

  energy without entropy =      -28.33841879  energy(sigma->0) =      -28.33841879


--------------------------------------------------------------------------------------------------------




--------------------------------------- Iteration      1(  30)  ---------------------------------------


    POTLOK:  cpu time    2.6642: real time    2.6673
    SETDIJ:  cpu time    0.0023: real time    0.0023
    EDDIAG:  cpu time    0.6662: real time    0.6668
  RMM-DIIS:  cpu time    3.1800: real time    3.1828
    ORTHCH:  cpu time    0.0166: real time    0.0167
       DOS:  cpu time    0.0002: real time    0.0002
    CHARGE:  cpu time    0.4664: real time    0.4668
    MIXING:  cpu time    0.1723: real time    0.1725
    --------------------------------------------
      LOOP:  cpu time    7.1682: real time    7.1754

 eigenvalue-minimisations  :    56
 total energy-change (2. order) :-0.8011516E-04  (-0.1472291E-04)
[...]
  Solvation  Ediel_sol  =         0.00000000
  ---------------------------------------------------
  free energy    TOTEN  =       -28.33860866 eV

  energy without entropy =      -28.33860866  energy(sigma->0) =      -28.33860866


--------------------------------------------------------------------------------------------------------




--------------------------------------- Iteration      1(  44)  ---------------------------------------


    POTLOK:  cpu time    2.7465: real time    2.7491
    SETDIJ:  cpu time    0.0021: real time    0.0021
    EDDIAG:  cpu time    0.6678: real time    0.6683
  RMM-DIIS:  cpu time    2.6958: real time    2.6991
    ORTHCH:  cpu time    0.0184: real time    0.0184
       DOS:  cpu time    0.0002: real time    0.0002
    CHARGE:  cpu time    0.4673: real time    0.4676
    MIXING:  cpu time    0.3147: real time    0.3151
    --------------------------------------------
      LOOP:  cpu time    6.9128: real time    6.9199

 eigenvalue-minimisations  :    42
 total energy-change (2. order) :-0.1723947E-07  (-0.1192770E-09)
 number of electron      16.0000000 magnetization 
 augmentation part        0.1105790 magnetization 

 Broyden mixing:
  rms(total) = 0.28374E-04    rms(broyden)= 0.28374E-04
  rms(prec ) = 0.28675E-04
  weight for this iteration     100.00

 eigenvalues of (default mixing * dielectric matrix)
  average eigenvalue GAMMA=   3.6328
 59.0639 16.6011  8.4285  6.9653  5.2935  4.0587  3.3367  2.7271  2.7271  2.4884
  2.1255  2.1255  1.8541  1.6015  1.6015  0.8702  0.8702  1.0431  1.0431  1.1640
  1.1640  1.0564  1.0564  1.0405  0.8121  0.8121  0.9326  0.8962  0.8962  0.8271
  0.8271  0.8189  0.8189  0.7481  0.7481  0.6058  0.6424  0.4941  0.4941

 Free energy of the ion-electron system (eV)
  ---------------------------------------------------
  alpha Z        PSCENC =         0.21758540
  Ewald energy   TEWEN  =       191.56505113
  -Hartree energ DENC   =      -981.80626204
  -exchange      EXHF   =         0.00000000
  -V(xc)+E(xc)   XCENC  =        63.97074250
  PAW double counting   =      5066.05976801    -5068.94372962
  entropy T*S    EENTRO =        -0.00000000
  eigenvalues    EBANDS =      -214.10543275
  atomic energy  EATOM  =       914.70366869
  Solvation  Ediel_sol  =         0.00000000
  ---------------------------------------------------
  free energy    TOTEN  =       -28.33860867 eV

  energy without entropy =      -28.33860867  energy(sigma->0) =      -28.33860867


--------------------------------------------------------------------------------------------------------




--------------------------------------- Iteration      1(  45)  ---------------------------------------


    POTLOK:  cpu time    2.7321: real time    2.7391
    SETDIJ:  cpu time    0.0034: real time    0.0034
    EDDIAG:  cpu time    0.6706: real time    0.6712
  RMM-DIIS:  cpu time    2.8225: real time    2.8246
    ORTHCH:  cpu time    0.0179: real time    0.0179
       DOS:  cpu time    0.0002: real time    0.0002
    CHARGE:  cpu time    0.4665: real time    0.4667
    MIXING:  cpu time    0.3266: real time    0.3285
    --------------------------------------------
      LOOP:  cpu time    7.0397: real time    7.0515

 eigenvalue-minimisations  :    48
 total energy-change (2. order) :-0.1602621E-07  (-0.1336700E-09)
 number of electron      16.0000000 magnetization 
 augmentation part        0.1105789 magnetization 

 Broyden mixing:
  rms(total) = 0.17281E-04    rms(broyden)= 0.17281E-04
  rms(prec ) = 0.17484E-04
  weight for this iteration     100.00

 eigenvalues of (default mixing * dielectric matrix)
  average eigenvalue GAMMA=   3.6466
 59.0671 16.5934  8.4607  7.1268  5.4257  4.2992  3.3616  2.6772  2.6772  2.6302
  2.6302  2.4486  2.4486  1.8904  1.8904  1.4228  1.1939  1.1939  0.8702  0.8702
  1.1362  0.9966  0.9966  1.0106  1.0106  1.0265  1.0265  0.8568  0.8568  0.8369
  0.8369  0.8039  0.8039  0.7345  0.7345  0.6058  0.6332  0.6353  0.6353  0.5091

 Free energy of the ion-electron system (eV)
  ---------------------------------------------------
  alpha Z        PSCENC =         0.21758540
  Ewald energy   TEWEN  =       191.56505113
  -Hartree energ DENC   =      -981.80658154
  -exchange      EXHF   =         0.00000000
  -V(xc)+E(xc)   XCENC  =        63.97075927
  PAW double counting   =      5066.05135123    -5068.93531667
  entropy T*S    EENTRO =        -0.00000000
  eigenvalues    EBANDS =      -214.10512620
  atomic energy  EATOM  =       914.70366869
  Solvation  Ediel_sol  =         0.00000000
  ---------------------------------------------------
  free energy    TOTEN  =       -28.33860869 eV

  energy without entropy =      -28.33860869  energy(sigma->0) =      -28.33860869


--------------------------------------------------------------------------------------------------------




--------------------------------------- Iteration      1(  46)  ---------------------------------------


    POTLOK:  cpu time    2.7563: real time    2.7685
    SETDIJ:  cpu time    0.0027: real time    0.0027
    EDDIAG:  cpu time    0.6696: real time    0.6708
  RMM-DIIS:  cpu time    2.0341: real time    2.0372
    ORTHCH:  cpu time    0.0161: real time    0.0161
       DOS:  cpu time    0.0002: real time    0.0002
    CHARGE:  cpu time    0.4658: real time    0.4662
    MIXING:  cpu time    0.3415: real time    0.3417
    --------------------------------------------
      LOOP:  cpu time    6.2863: real time    6.3034

 eigenvalue-minimisations  :    30
 total energy-change (2. order) :-0.3812420E-07  (-0.9304024E-10)
 number of electron      16.0000000 magnetization 
 augmentation part        0.1105786 magnetization 

 Broyden mixing:
  rms(total) = 0.16710E-04    rms(broyden)= 0.16710E-04
  rms(prec ) = 0.16816E-04
  weight for this iteration     100.00

 eigenvalues of (default mixing * dielectric matrix)
  average eigenvalue GAMMA=   3.5982
 59.0626 16.6057  8.5352  7.3089  5.7495  4.3292  3.8280  2.7599  2.7599  2.4444
  2.4444  2.4123  2.2152  2.2152  1.6488  1.6488  1.1994  1.1994  0.8702  0.8702
  1.1184  1.1184  1.0053  1.0053  1.0820  0.9578  0.9009  0.9009  0.7457  0.7457
  0.8599  0.8243  0.8243  0.8009  0.8009  0.7228  0.7228  0.6058  0.6422  0.5182
  0.5182

 Free energy of the ion-electron system (eV)
  ---------------------------------------------------
  alpha Z        PSCENC =         0.21758540
  Ewald energy   TEWEN  =       191.56505113
  -Hartree energ DENC   =      -981.80677897
  -exchange      EXHF   =         0.00000000
  -V(xc)+E(xc)   XCENC  =        63.97076868
  PAW double counting   =      5066.05974758    -5068.94371470
  entropy T*S    EENTRO =        -0.00000000
  eigenvalues    EBANDS =      -214.10493654
  atomic energy  EATOM  =       914.70366869
  Solvation  Ediel_sol  =         0.00000000
  ---------------------------------------------------
  free energy    TOTEN  =       -28.33860873 eV

  energy without entropy =      -28.33860873  energy(sigma->0) =      -28.33860873


--------------------------------------------------------------------------------------------------------




--------------------------------------- Iteration      1(  47)  ---------------------------------------


    POTLOK:  cpu time    2.7820: real time    2.7859
    SETDIJ:  cpu time    0.0024: real time    0.0024
    EDDIAG:  cpu time    0.6656: real time    0.6667
  RMM-DIIS:  cpu time    2.1691: real time    2.1726
    ORTHCH:  cpu time    0.0174: real time    0.0174
       DOS:  cpu time    0.0003: real time    0.0003
    CHARGE:  cpu time    0.4728: real time    0.4731
    MIXING:  cpu time    0.3673: real time    0.3677
    --------------------------------------------
      LOOP:  cpu time    6.4769: real time    6.4861

 eigenvalue-minimisations  :    36
 total energy-change (2. order) :-0.2250090E-07  (-0.3639258E-09)
 number of electron      16.0000000 magnetization 
 augmentation part        0.1105781 magnetization 

 Broyden mixing:
  rms(total) = 0.11526E-04    rms(broyden)= 0.11526E-04
  rms(prec ) = 0.11629E-04
  weight for this iteration     100.00

 eigenvalues of (default mixing * dielectric matrix)
  average eigenvalue GAMMA=   3.5368
 59.0596 16.6069  8.5387  7.4051  5.8188  4.5910  3.8430  2.7333  2.7333  2.6636
  2.4177  2.4177  2.0084  2.0084  1.4965  1.4965  1.1756  1.1756  0.8702  0.8702
  1.2250  1.1228  1.1228  1.0514  0.9811  0.9811  0.9673  0.9673  0.8802  0.8802
  0.8370  0.8370  0.8198  0.8198  0.7500  0.7500  0.4524  0.6631  0.6631  0.6058
  0.6182  0.6182

 Free energy of the ion-electron system (eV)
  ---------------------------------------------------
  alpha Z        PSCENC =         0.21758540
  Ewald energy   TEWEN  =       191.56505113
  -Hartree energ DENC   =      -981.80733989
  -exchange      EXHF   =         0.00000000
  -V(xc)+E(xc)   XCENC  =        63.97079804
  PAW double counting   =      5066.03090218    -5068.91487560
  entropy T*S    EENTRO =        -0.00000000
  eigenvalues    EBANDS =      -214.10439870
  atomic energy  EATOM  =       914.70366869
  Solvation  Ediel_sol  =         0.00000000
  ---------------------------------------------------
  free energy    TOTEN  =       -28.33860875 eV

  energy without entropy =      -28.33860875  energy(sigma->0) =      -28.33860875


--------------------------------------------------------------------------------------------------------




--------------------------------------- Iteration      1(  48)  ---------------------------------------


    POTLOK:  cpu time    2.7805: real time    2.7841
    SETDIJ:  cpu time    0.0029: real time    0.0029
    EDDIAG:  cpu time    0.6686: real time    0.6698
  RMM-DIIS:  cpu time    2.4945: real time    2.4976
    ORTHCH:  cpu time    0.0178: real time    0.0178
       DOS:  cpu time    0.0001: real time    0.0001
    --------------------------------------------
      LOOP:  cpu time    5.9643: real time    5.9722

 eigenvalue-minimisations  :    40
 total energy-change (2. order) :-0.3444256E-08  (-0.1126850E-09)
 number of electron      16.0000000 magnetization 
 augmentation part        0.1105781 magnetization 

 Free energy of the ion-electron system (eV)
  ---------------------------------------------------
  alpha Z        PSCENC =         0.21758540
  Ewald energy   TEWEN  =       191.56505113
  -Hartree energ DENC   =      -981.80732286
  -exchange      EXHF   =         0.00000000
  -V(xc)+E(xc)   XCENC  =        63.97079703
  PAW double counting   =      5066.03514132    -5068.91911461
  entropy T*S    EENTRO =        -0.00000000
  eigenvalues    EBANDS =      -214.10441486
  atomic energy  EATOM  =       914.70366869
  Solvation  Ediel_sol  =         0.00000000
  ---------------------------------------------------
  free energy    TOTEN  =       -28.33860875 eV

  energy without entropy =      -28.33860875  energy(sigma->0) =      -28.33860875


--------------------------------------------------------------------------------------------------------




 average (electrostatic) potential at core
  the test charge radii are     0.5955  0.4325
  (the norm of the test charge is              1.0000)
       1-119.5355       2-119.7040       3 -46.8655       4 -47.0821       5 -47.1086
       6 -47.1120
 
 
 
 E-fermi :  -6.7333     XC(G=0):  -0.3828     alpha+bet : -0.0904


 k-point     1 :       0.0000    0.2500    0.2500
  band No.  band energies     occupation 
      1     -24.7705      2.00000
      2     -24.6406      2.00000
      3     -12.5810      2.00000
      4     -12.4229      2.00000
      5      -9.3397      2.00000
      6      -9.1913      2.00000
      7      -7.1337      2.00000
      8      -6.9726      2.00000
      9      -1.1723      0.00000
     10      -0.9969      0.00000
     11       0.1920      0.00000
     12       0.2653      0.00000

 k-point     2 :       0.0000   -0.2500    0.2500
  band No.  band energies     occupation 
      1     -24.7705      2.00000
      2     -24.6406      2.00000
      3     -12.5810      2.00000
      4     -12.4229      2.00000
      5      -9.3397      2.00000
      6      -9.1913      2.00000
      7      -7.1337      2.00000
      8      -6.9726      2.00000
      9      -1.1723      0.00000
     10      -0.9969      0.00000
     11       0.1924      0.00000
     12       0.2649      0.00000


--------------------------------------------------------------------------------------------------------


 soft charge-density along one line, spin component           1
         0         1         2         3         4         5         6         7         8         9
 total charge-density along one line
 
 pseudopotential strength for first ion, spin component:           1
 26.730  32.692   0.059  -0.001  -0.040   0.077  -0.001  -0.053
 32.692  39.983   0.072  -0.001  -0.049   0.095  -0.001  -0.065
  0.059   0.072  -9.433   0.001  -0.010 -12.548   0.001  -0.013
 -0.001  -0.001   0.001  -9.388   0.000   0.001 -12.487   0.001
 -0.040  -0.049  -0.010   0.000  -9.441  -0.013   0.001 -12.559
  0.077   0.095 -12.548   0.001  -0.013 -16.678   0.001  -0.017
 -0.001  -0.001   0.001 -12.487   0.001   0.001 -16.596   0.001
 -0.053  -0.065  -0.013   0.001 -12.559  -0.017   0.001 -16.693
 total augmentation occupancy for first ion, spin component:           1
 16.314 -14.440  -9.024   0.089   6.368   4.020  -0.039  -2.887
-14.440  13.925   7.639  -0.075  -5.421  -3.597   0.035   2.595
 -9.024   7.639   8.123  -0.065   0.954  -3.667   0.042  -0.623
  0.089  -0.075  -0.065   3.990  -0.047   0.042  -1.005   0.031
  6.368  -5.421   0.954  -0.047   9.349  -0.624   0.031  -4.436
  4.020  -3.597  -3.667   0.042  -0.624   1.692  -0.023   0.350
 -0.039   0.035   0.042  -1.005   0.031  -0.023   0.253  -0.017
 -2.887   2.595  -0.623   0.031  -4.436   0.350  -0.017   2.124


------------------------ aborting loop because EDIFF is reached ----------------------------------------


    CHARGE:  cpu time    0.4642: real time    0.4647
    FORLOC:  cpu time    0.1124: real time    0.1124
    FORNL :  cpu time    0.1549: real time    0.1550
    STRESS:  cpu time    1.0214: real time    1.0220
    FORCOR:  cpu time    2.5822: real time    2.6702
    FORHAR:  cpu time    0.7612: real time    0.7616
    MIXING:  cpu time    0.3654: real time    0.3656
    OFIELD:  cpu time    0.0001: real time    0.0001

  FORCE on cell =-STRESS in cart. coord.  units (eV):
  Direction    XX          YY          ZZ          XY          YZ          ZX
  --------------------------------------------------------------------------------------
  Alpha Z     0.21759     0.21759     0.21759
  Ewald     -77.10645   144.77250   123.89885    45.73941    -1.04797    -1.19288
  Hartree   193.43833   396.45327   391.91510     8.89171    -0.20653    -0.22622
  E(xc)     -72.99197   -72.83973   -72.99298     0.22411    -0.00560    -0.00579
  Local    -402.48449  -818.97778  -802.38593   -40.11697     0.90668     1.04100
  n-local   -42.67513   -41.36945   -42.37637     2.47767    -0.05866    -0.06450
  augment     1.32269     1.06006     1.33193    -0.32349     0.00852     0.00827
  Kinetic   398.14528   386.94103   397.60179   -18.16596     0.44384     0.47117
  Fock        0.00000     0.00000     0.00000     0.00000     0.00000     0.00000
  -------------------------------------------------------------------------------------
  Total      -2.13414    -3.74250    -2.79002    -1.27353     0.04027     0.03104
  in kB      -1.13976    -1.99872    -1.49004    -0.68014     0.02151     0.01658
  external pressure =       -1.54 kB  Pullay stress =        0.00 kB


 VOLUME and BASIS-vectors are now :
 -----------------------------------------------------------------------------
  energy-cutoff  :     1500.00
  volume of cell :     3000.00
      direct lattice vectors                 reciprocal lattice vectors
    30.000000000  0.000000000  0.000000000     0.033333333  0.000000000  0.000000000
     0.000000000 10.000000000  0.000000000     0.000000000  0.100000000  0.000000000
     0.000000000  0.000000000 10.000000000     0.000000000  0.000000000  0.100000000

  length of vectors
    30.000000000 10.000000000 10.000000000     0.033333333  0.100000000  0.100000000


 FORCES acting on ions
    electron-ion (+dipol)            ewald-force                    non-local-force                 convergence-correction
 -----------------------------------------------------------------------------------------------
   -.469E+02 0.441E+02 -.431E+00   0.747E+02 -.845E+02 0.834E+00   -.286E+02 0.429E+02 -.434E+00   0.578E-04 -.523E-04 0.699E-06
   -.783E+01 -.486E+02 0.194E-01   0.284E+02 0.929E+02 -.553E-01   -.217E+02 -.466E+02 0.510E-01   0.195E-04 0.744E-04 0.999E-06
   -.308E+02 -.757E+02 0.126E+01   0.322E+02 0.796E+02 -.132E+01   -.228E+01 -.621E+01 0.103E+00   0.141E-06 -.225E-04 0.350E-06
   0.814E+02 -.467E+01 -.459E+00   -.871E+02 0.501E+01 0.490E+00   0.728E+01 -.451E+00 -.394E-01   0.255E-04 -.595E-05 -.498E-07
   0.231E+02 0.437E+02 -.660E+02   -.243E+02 -.463E+02 0.698E+02   0.173E+01 0.369E+01 -.552E+01   0.654E-05 0.203E-04 -.204E-04
   0.228E+02 0.441E+02 0.659E+02   -.240E+02 -.466E+02 -.697E+02   0.171E+01 0.372E+01 0.552E+01   0.643E-05 0.204E-04 0.204E-04
 -----------------------------------------------------------------------------------------------
   0.418E+02 0.299E+01 0.320E+00   -.355E-14 0.000E+00 0.000E+00   -.418E+02 -.299E+01 -.320E+00   0.116E-03 0.343E-04 0.200E-05
 
 
 POSITION                                       TOTAL-FORCE (eV/Angst)
 -----------------------------------------------------------------------------------
      8.65607      1.57110      1.76000        -0.726877      2.468981     -0.030785
     28.65393      1.57110      1.76000        -1.084946     -2.329043      0.015063
      8.97632      2.55412      1.74392        -0.805776     -2.362510      0.038867
      7.65418      1.66728      1.76493         1.532213     -0.106483     -0.008078
     28.38369      0.99418      2.56104         0.548669      1.165059     -1.731021
     28.38745      0.99080      0.96072         0.536718      1.163996      1.715953
 -----------------------------------------------------------------------------------
    total drift:                                0.000074     -0.000001      0.000024


--------------------------------------------------------------------------------------------------------



  FREE ENERGIE OF THE ION-ELECTRON SYSTEM (eV)
  ---------------------------------------------------
  free  energy   TOTEN  =       -28.33860875 eV

  energy  without entropy=      -28.33860875  energy(sigma->0) =      -28.33860875
 


--------------------------------------------------------------------------------------------------------


    POTLOK:  cpu time    2.7852: real time    2.7888


--------------------------------------------------------------------------------------------------------


     LOOP+:  cpu time  348.9194: real time  350.0447
    4ORBIT:  cpu time    0.0000: real time    0.0000

 total amount of memory used by VASP MPI-rank0   207433. kBytes
=======================================================================

   base      :      30000. kBytes
   nonl-proj :       8719. kBytes
   fftplans  :      62778. kBytes
   grid      :     101176. kBytes
   one-center:          3. kBytes
   wavefun   :       4757. kBytes
 
  
  
 General timing and accounting informations for this job:
 ========================================================
  
                  Total CPU time used (sec):      357.819
                            User time (sec):      353.397
                          System time (sec):        4.422
                         Elapsed time (sec):      366.871
  
                   Maximum memory used (kb):      707288.
                   Average memory used (kb):           0.
  
                          Minor page faults:       328864
                          Major page faults:            9
                 Voluntary context switches:          486
