unknown system                          
           1
    30.000000    0.000000    0.000000
     0.000000   10.000000    0.000000
     0.000000    0.000000   10.000000
   O    H 
   2   4
Direct configuration=     1
   0.28853563  0.15710957  0.17600000
   0.95513104  0.15710957  0.17600000
   0.29921080  0.25541218  0.17439231
   0.25513922  0.16672783  0.17649328
   0.94612303  0.09941802  0.25610440
   0.94624850  0.09907990  0.09607226
