3.756069999999999798e+00 1.571099999999999941e+00 1.760000000000000009e+00 2.865392999999999901e+01 1.571099999999999941e+00 1.760000000000000009e+00 4.076319999999999943e+00 2.554120000000000168e+00 1.743919999999999915e+00 2.754179999999999851e+00 1.667280000000000095e+00 1.764930000000000110e+00 2.838369000000000142e+01 9.941799999999999526e-01 2.561040000000000205e+00 2.838745000000000118e+01 9.908000000000000140e-01 9.607200000000000184e-01
