-2.228724319901309148e+00 -1.279971242321605196e+00 3.093291922401609009e-02 -1.279971242321605196e+00 -3.736591784907842051e+00 4.040753007592415985e-02 3.093291922401609009e-02 4.040753007592415985e-02 -2.778139402147725701e+00
