LAMMPS data file via write_data, version 29 Sep 2021, timestep = 100000

432 atoms
2 atom types

1.149291422990574 18.909211035072897 xlo xhi
1.149291422990574 18.909211035072897 ylo yhi
0.3830971409968633 6.30307034502425 zlo zhi

Masses

1 15.999
2 1.00784

Atoms # atomic

4 1 3.9938898824526325 4.322576825002119 0.6605172946571845 0 0 0
5 2 4.3779333611986235 3.734434489073566 5.992585683841767 0 0 -1
12 2 1.4739458292204817 3.410912811318094 2.9488697792762513 0 0 0
13 1 2.427441488849854 2.672951509448416 1.9343572102717488 0 0 0
15 2 3.114691710546411 3.249380005224424 1.514364830299923 0 0 0
26 2 5.49285325195487 2.282437241291003 0.8745742992566711 0 0 0
30 2 2.1313452252577245 3.3814017327033956 5.237940887781481 0 0 -1
34 1 4.2479568084251245 4.1113855240065185 3.3801625615239668 0 0 0
35 2 3.245829037836498 3.3771084749651985 4.231093290640974 0 0 0
43 1 2.6667055225720597 2.6712231420884507 4.777656279403878 0 0 0
44 2 1.7766900671095964 1.7998468095040385 3.9895170765283026 0 0 0
45 2 3.9628712981393446 1.9914864098733502 5.856273327243622 0 0 0
39 2 4.536058663301542 3.700476343953499 2.5648883635155624 0 0 0
17 2 5.0629281251964855 5.412298098050428 1.299301531819481 0 0 0
42 2 1.521408503252389 4.499526481279153 1.0519597596396306 0 0 0
6 2 3.319286974008305 4.864012569201504 5.91022983064077 0 0 -1
21 2 5.069643917223461 2.258281260891075 4.072341794396213 0 0 0
14 2 3.545621253359787 1.609551300169643 2.640999005763434 0 0 0
224 2 4.944083234546456 4.439585154979831 3.9978872924619853 0 0 0
3 2 2.0215087768180586 2.3789486500039985 1.0940878891834958 0 0 0
36 2 2.2893210412015064 5.067950628417891 2.8962614290249324 0 0 0
24 2 1.9007316412424258 5.063458239603904 4.46907671680872 0 0 0
1 1 1.172842839236399 18.833281181024347 6.090792279260519 0 -1 -1
19 1 5.475448192579044 2.608207086272375 4.930244640022558 0 0 0
7 1 4.350571691150758 1.3709197802485122 3.1759068269357846 0 0 0
25 1 4.049116538794279 1.1904241866683836 0.5565175253811568 0 0 0
37 1 5.774884785611688 2.8032295812073507 1.6539640524970307 0 0 0
46 1 5.794342573322003 5.331174130882391 4.977703558731662 0 0 0
16 1 5.688537795251849 5.848652453005723 2.00903707247583 0 0 0
20 2 6.191507262992421 3.2395945440654015 4.728542805063842 0 0 0
38 2 6.771820831277346 3.564691781021756 1.0450788924612189 0 0 0
51 2 6.66165916807793 1.6585591584488757 5.833022628394927 0 0 -1
58 1 7.137550386968212 4.3322956303874935 3.410358125496771 0 0 0
60 2 7.855132079126114 3.7814378152698622 2.975372717463192 0 0 0
62 2 8.178345455800345 2.052371553914659 1.2174144865251053 0 0 0
76 1 7.50417575007761 4.201194499670216 0.4730004278726255 0 0 0
77 2 6.621617555389969 4.986679144126523 5.465106430033702 0 0 -1
78 2 8.288247753634632 5.18024644681326 1.0500366362950881 0 0 0
80 2 6.1122582758702215 2.130419856376036 2.2891764689733645 0 0 0
93 2 7.901857559333568 3.5152444513989693 5.706596180449558 0 0 0
53 2 9.642350584818479 4.775069900505217 5.665860563137294 0 0 -1
61 1 8.78560483036111 2.5633253100961824 1.8304047651349757 0 0 0
63 2 9.226620021228715 3.263522003938685 1.4229152608439068 0 0 0
83 2 9.134561885190704 3.43884451821191 4.162807779499262 0 0 0
84 2 9.273698880860751 4.919371568705005 2.46288001456485 0 0 0
91 1 8.455369172634445 2.626788084891924 4.865738537763721 0 0 0
92 2 9.121029952956064 2.2224352229429876 5.3725662038181525 0 0 0
72 2 8.338511112452949 5.09207132725922 4.684818662040842 0 0 0
81 2 7.873906367793523 1.6986602679495046 3.6563654149595095 0 0 0
18 2 6.434988560169719 4.5393990022316295 2.798528374327067 0 0 0
56 2 9.824764728803903 1.7663030946414873 2.635983562896952 0 0 0
82 1 9.902314747543768 4.167184745135107 3.4493262457251306 0 0 0
88 1 8.774382265569184 5.628085577434238 1.830851269629572 0 0 0
52 1 10.13778289810525 4.1184340000296285 6.222568867188955 0 0 -1
55 1 10.021424681895752 18.833921627283054 3.263078521533693 0 -1 0
54 2 11.071615277053168 4.910646582616098 1.407618293160126 0 0 0
57 2 11.147272728842056 1.8259487314967289 3.967952613592821 0 0 0
67 1 11.584410441788739 2.5462311402163853 4.567617585627094 0 0 0
68 2 10.816770938328078 3.6677495494105576 5.533898076540663 0 0 0
85 1 11.481425921678703 2.4611819184433195 1.7049401756876026 0 0 0
86 2 10.911057624594696 1.9652632060681952 0.9798225084973412 0 0 0
87 2 10.558472977047375 3.740377408369699 2.7632555651710846 0 0 0
69 2 12.172044826788317 1.640738068728524 5.530895592497437 0 0 0
106 1 13.14115698375966 4.12434280701572 3.2917803327574977 0 0 0
107 2 12.206751362763653 3.2489023850525425 4.004269794538737 0 0 0
108 2 13.696498059561142 4.495910818285678 3.9206494918819352 0 0 0
110 2 14.058942018052193 2.0804278993658896 1.2176746948894408 0 0 0
124 1 12.80868956940667 4.125697251813017 6.229979536673407 0 0 -1
125 2 12.217006877171126 3.196051294422752 1.0622654835916845 0 0 0
126 2 13.861127380985213 3.155792153443627 5.210330909503021 0 0 -1
128 2 12.203249116206319 1.7654773544670057 1.9569165342455201 0 0 0
140 2 13.746813032548411 1.7416683607907917 3.581124976301579 0 0 0
65 2 12.169478099442811 5.097398639064458 2.6317800766681603 0 0 0
95 2 12.466490203530805 4.887839658171503 5.742432528458645 0 0 0
96 2 10.952030327672789 5.168763167743956 4.062869892081427 0 0 0
111 2 13.800926256633687 3.6783879561307424 2.6267507084758073 0 0 0
138 2 13.484950077799992 4.467582950780206 0.9192455366331327 0 0 0
94 1 11.63002786116484 5.66174228570892 4.695080252129529 0 0 0
127 1 13.117666394020896 18.907655075876644 3.2258200262576486 0 -1 0
109 1 14.525092739500101 2.6767219875828876 1.7461838775185798 0 0 0
139 1 14.448387132408525 2.5533711821920884 4.79124053007764 0 0 0
64 1 11.702073956641952 5.568382624505751 1.863428920645842 0 0 0
31 1 1.321094242651335 1.1759985163107203 3.276126206932565 0 0 0
10 1 18.615738909255818 3.9837605894272468 3.5088472545376215 -1 0 0
28 1 18.704717325410904 4.109986588191845 6.2350962627688595 -1 0 -1
141 2 15.183438639915334 3.11881775893769 4.314242317952386 0 0 0
137 2 15.458217648902476 4.527928408214667 2.7496407784146033 0 0 0
11 2 18.19420653059789 3.3297682234509236 4.0858013269113265 -1 0 0
29 2 17.690118430381695 4.995567313166655 5.197334136640457 -1 0 -1
33 2 18.014092093866424 1.999485335099251 2.477892101203827 -1 0 0
100 1 15.91723051267248 4.014437701626588 6.283056828998811 0 0 -1
101 2 14.963892912631371 3.2045225709692735 1.0747143444186218 0 0 0
102 2 16.39357687556362 4.694185815944564 1.000489989683597 0 0 0
104 2 15.385742337053628 1.8467439000738617 2.7684618693998737 0 0 0
105 2 16.81388827656265 1.7899761177455105 3.7161214274433347 0 0 0
115 1 17.458320696509745 2.368791125668958 4.621037376271701 0 0 0
116 2 16.805386035372084 3.0397351076049066 4.789454771953804 0 0 0
117 2 18.211548557037297 1.554076424583279 5.468988369317575 0 0 0
122 2 15.354480437927418 1.54473879936144 5.787691466457823 0 0 -1
130 1 16.055801833916586 3.9742981982931838 3.3329731647487812 0 0 0
131 2 16.486652669461378 4.714498057079899 3.8095665062512314 0 0 0
132 2 17.069850843265762 3.1209319398418103 2.084108706799684 0 0 0
133 1 17.662846863716 2.5724735710315283 1.711271306332406 0 0 0
134 2 16.722116574391627 1.5242079194110185 0.7725332555762842 0 0 0
135 2 17.988107396765315 3.6084369242886845 0.7023264283964435 0 0 0
119 2 15.535222428453823 4.741610380023825 5.720404361920025 0 0 0
114 2 17.977844408984673 5.264835080223905 2.4616317527867313 0 0 0
142 1 17.14813779679921 5.731063174687688 4.84443378758281 0 0 0
103 1 15.993302754008674 1.23373986758384 3.1531602621875927 0 0 0
121 1 16.01387263198565 18.7427804310503 6.286490201503675 0 -1 -1
40 1 2.271857713512638 5.348936341548206 2.0209368099437173 0 0 0
22 1 2.558738128172897 5.7562709494205215 4.853669324665085 0 0 0
59 2 5.229253907990488 6.020785906298181 2.856825970957078 0 0 0
48 2 4.56734177981345 6.501329640067665 5.664932685724698 0 0 0
23 2 1.9118588096587017 6.204445090266667 5.5134639976953945 0 0 0
41 2 1.9472748687569021 6.231982931746608 2.321818479203497 0 0 0
147 2 1.4175675023511451 7.625788142840935 1.016708596447283 0 0 0
151 1 4.183403440239418 7.087497936382301 3.597131310489386 0 0 0
152 2 4.847217289273832 7.6010069609970845 4.209190204265525 0 0 0
153 2 3.503147824235491 6.462240670708674 4.038393574199408 0 0 0
158 2 2.8322238518943195 7.774167068737101 2.7332980827868427 0 0 0
169 1 3.973086421773794 7.2411928582563165 6.195987526457081 0 0 -1
170 2 3.6196301962319497 6.6110445478083655 0.9851295882114253 0 0 0
176 2 1.8529221113137277 7.88671945589613 4.0245415205301125 0 0 0
188 2 3.1944652047482966 7.964791464103465 5.23562905742958 0 0 0
150 2 3.579741579464783 9.070899540300491 0.8509455083801607 0 0 0
157 1 2.5784770549765863 8.362867998036263 2.0005523472012703 0 0 0
159 2 2.0026646561988635 9.020179448720643 2.2526044743326774 0 0 0
179 2 5.033957362316939 9.103247081039658 2.919731846735666 0 0 0
180 2 3.4632899513106055 9.423557404979785 3.792424818173786 0 0 0
187 1 2.518703839414324 8.503360726308568 4.748725318048966 0 0 0
189 2 2.088722927629324 8.910975654747507 5.537234747785732 0 0 0
165 2 4.625021243970911 9.749354797496906 5.861829135883573 0 0 0
47 2 5.300552872714767 7.795397310399094 1.9692219620662748 0 0 1
181 1 5.665849319407102 8.607362996128249 2.289367653556356 0 0 0
175 1 1.2278812863596613 7.04303793716799 3.4487898491297613 0 0 0
178 1 4.035436794605486 10.059754780939693 3.4529101484878906 0 0 0
154 1 18.907608581478577 10.11574100710943 3.3525592036608924 -1 0 0
148 1 3.845789886105163 9.950747298594427 0.4634753465316417 0 0 0
172 1 1.1925721649796037 9.880242315670621 0.5941300017854168 0 0 0
163 1 5.479053400273161 8.577189089842989 5.164985175022643 0 0 0
70 1 8.872978275624558 5.870347209523805 4.946296116104867 0 0 0
194 2 6.578729413186219 6.830365627436553 1.2107034617572854 0 0 0
164 2 6.262409874141182 8.003467616725278 5.541312659284134 0 0 0
171 2 7.133166144884315 7.851014316737101 3.2754290488998934 0 0 0
90 2 6.294839115754658 6.050822429228609 4.598567077893682 0 0 0
182 2 7.6784228165567825 6.5303588957756356 3.106183645707427 0 0 0
193 1 7.073856516647819 7.2052251058271155 0.48935316864219536 0 0 0
195 2 7.723129200838974 6.618865448494476 5.966372695279462 0 0 -1
206 2 7.709668864719999 8.234123382204633 1.5675283145447396 0 0 0
223 1 7.251901464018503 7.10800807625074 3.788387607846746 0 0 0
225 2 8.089559929476367 8.029304653916359 4.559632803553591 0 0 0
71 2 9.377724791326585 6.157038842346832 4.066390173419645 0 0 0
89 2 9.508867346163864 6.3591362005935155 1.2401153191285608 0 0 0
200 2 9.61165424900561 7.6687362162599575 2.7293501788854924 0 0 0
236 2 8.59571638586483 9.20704810422672 5.58104996394752 0 0 0
203 2 6.103404422631288 9.059984268509787 4.516504086822093 0 0 0
237 2 10.051004700069113 7.37262960347052 5.608944674073073 0 0 0
198 2 9.780393314989208 9.64645004405091 1.1799896344198793 0 0 0
205 1 8.405750493470979 8.478043276479074 2.1631104527395117 0 0 0
227 2 9.278665595777893 9.555537701018894 4.00692765284977 0 0 0
235 1 8.733622800980186 8.62974717174985 4.830745241879578 0 0 0
183 2 6.526419104211351 9.371304337799288 1.193414329359611 0 0 0
207 2 8.031633199925324 9.311191902002927 2.684826901467759 0 0 0
226 1 9.969504189721661 10.161421407530288 3.595495003238855 0 0 0
199 1 10.118396549601764 7.104344630070312 3.2071914500048955 0 0 0
217 1 10.146734524874377 7.1397853624783565 0.5857543718408239 0 0 0
219 2 11.07873164396418 6.299341618131413 5.1852122192345975 0 0 -1
218 2 10.962148966691805 8.153776349352036 1.301726088983553 0 0 0
201 2 10.985177402439376 7.039616079981869 2.6550406372262865 0 0 0
212 2 10.981202562469088 8.33669626375693 4.234243378415406 0 0 0
66 2 12.365078327471112 6.427761358805777 0.9677825837373828 0 0 0
213 2 12.176614966775556 7.710896841491213 5.827306718279764 0 0 0
230 2 12.431330798636541 7.453845124583632 2.902385972997155 0 0 0
241 1 12.969033323301678 7.267485869957251 0.480142045321462 0 0 0
242 2 13.518191207224563 6.1766336322915025 5.637338696905774 0 0 -1
243 2 13.64743371679761 8.345193552070942 1.4683016803550617 0 0 0
271 1 13.182008715078688 6.912963461499941 3.314031665224437 0 0 0
272 2 12.49031604433457 6.407127434081811 4.016466602674534 0 0 0
273 2 14.163426691653116 5.965359265864356 2.4909486135964767 0 0 0
284 2 13.590807038404858 7.947325405878106 4.403633912187675 0 0 0
211 1 11.554861951606357 8.625582255340994 4.9131780205849465 0 0 0
229 1 11.56555327935393 8.706850897201402 1.9213474395293562 0 0 0
251 2 12.010961351898239 9.328443900767843 4.337657067274153 0 0 0
255 2 13.38687922194451 9.607753385501123 2.9021420670695264 0 0 0
269 2 13.720735691316445 8.998608095965576 5.56642447920841 0 0 -1
270 2 12.476243426155218 9.648623170869113 0.6524719655606208 0 0 0
231 2 11.110025312833436 9.257024929122649 2.5921841421774765 0 0 0
197 2 10.644417548575339 9.696796058568337 5.5329774223313315 0 0 -1
250 1 12.813635411082938 10.129556190307776 3.3450677652681464 0 0 0
268 1 12.949494879429826 10.316685799525201 6.1211057646728815 0 0 -1
136 1 14.614638261711645 5.481238869596423 1.7202143268402021 0 0 0
118 1 14.255348454596554 5.589536459130356 5.14175915731116 0 0 0
283 1 14.260579996973837 8.582366812470031 4.861984221719234 0 0 0
145 1 18.63954416889638 7.150390188060254 6.226432350994944 -1 0 -1
253 1 14.333955134034019 8.824498572856292 1.907949474876845 0 0 0
112 1 17.3185203536583 5.770230382845265 1.9034286919009062 0 0 0
143 2 16.437737440786883 7.002220230603403 5.707560922953818 0 0 0
113 2 17.853124778393116 6.36678809475019 1.2116155168806872 0 0 0
120 2 14.564814699135592 6.244682052091233 4.454695666871001 0 0 0
285 2 15.224560824229924 7.771037181246754 5.69994739624071 0 0 0
276 2 15.293879027731037 9.450999933432996 3.5758225081219854 0 0 0
144 2 17.764333715210306 6.283352658309595 4.1430663451713805 0 0 0
146 2 18.31776012333345 7.950065651683656 5.75127065342589 -1 0 -1
177 2 18.295909793912138 7.5155106661433155 2.968023260604676 -1 0 0
247 1 15.8694444352767 7.2425295685758675 3.3748864972514343 0 0 0
248 2 15.188010541680557 7.819864425797468 2.8239746184531187 0 0 0
249 2 16.281926493274376 6.60188251967287 2.870740029828111 0 0 0
261 2 16.594216762855588 8.027459458481799 4.270847759697998 0 0 0
265 1 15.774374726486764 7.25760198059395 0.5125548559792965 0 0 0
266 2 16.6691748279745 7.78981215136591 1.462996992084643 0 0 0
267 2 15.207601035887949 6.247184249753405 1.3840219239471552 0 0 0
254 2 15.143611893134597 9.181330138176033 1.4197914942960508 0 0 0
259 1 17.25657958081664 8.617775796745853 4.959617701935996 0 0 0
277 1 17.35205578618414 8.485603043596637 1.96682948487768 0 0 0
278 2 16.76005221255609 9.189452051592525 2.433637098580772 0 0 0
279 2 18.09668396995974 9.520689437645549 0.9127685497778083 0 0 0
260 2 16.740158201990518 9.430303036872393 5.1969083439580315 0 0 0
156 2 18.531865412978462 9.464380982304476 3.9911196354018568 -1 0 0
149 2 3.15551169377908 10.863706971555555 5.432523729478322 0 0 -1
166 1 2.6775275680694204 11.522342888729202 4.962504430749918 0 0 0
167 2 2.117819884203189 10.966392023295143 4.293281852954521 0 0 0
184 1 2.7985420401945147 11.560782814124083 1.8759834351770917 0 0 0
185 2 3.441395970002192 10.534309794751893 2.6993636153172034 0 0 0
162 2 4.917079167462145 10.816125601822339 1.5006326769383151 0 0 0
191 2 4.908847048989036 10.781767452240572 4.283517952620605 0 0 0
168 2 3.615404132940369 12.419193428542075 3.6023082007733636 0 0 0
186 2 3.837621622492893 12.212447666840779 0.6826071040322881 0 0 0
291 2 1.8325977034071512 12.422470742165887 6.00434999788812 0 0 -1
295 1 4.276351437024095 12.919888690083178 3.2032313052244685 0 0 0
296 2 5.092899091962845 12.047395070497004 2.4142084429178188 0 0 0
313 1 4.295524127638805 12.953269421846299 6.192893662270726 0 0 -1
314 2 4.563009069252896 13.517963643387366 0.9581095220507904 0 0 0
321 2 2.197180339933968 12.142757873269153 2.4813103307298703 0 0 0
333 2 1.5762695520188044 13.613136671421929 3.859182399357523 0 0 0
192 2 5.2988112087253745 11.953269261068383 5.592267287899887 0 0 0
173 2 2.155302142718181 10.980468861860999 1.3960476630780203 0 0 0
315 2 3.3161049374181006 13.838589645963149 5.0313724528692605 0 0 -1
302 2 3.729344820078081 13.736485868519065 2.625036224131395 0 0 0
308 2 4.801240113259343 13.560232830089328 3.992912281279069 0 0 0
290 2 2.1490122928021225 13.733104164040654 1.445362976367816 0 0 0
319 1 18.905514727683332 12.932686189603393 3.209226130933738 -1 0 0
160 1 5.59091518556139 11.45259280587742 1.773158773912292 0 0 0
301 1 2.841725080694693 14.398370741657013 1.8363318318821493 0 0 0
190 1 5.62277345647352 11.407931782405479 4.861173602505892 0 0 0
202 1 7.09505049963668 10.082029761766378 3.5330731023004738 0 0 0
220 1 7.173570766879675 9.913871716326035 0.6382754979545497 0 0 0
309 2 6.301124754736127 14.065684037249957 5.318575849473969 0 0 0
161 2 6.585368057470356 10.617881982628024 2.8537094020823344 0 0 0
204 2 7.211357504306142 10.618479142985006 4.32202861015115 0 0 0
221 2 6.669937796876062 10.61166666649989 6.167203660952109 0 0 -1
222 2 7.9562989834075735 12.029446485157063 2.4600481600092126 0 0 0
214 1 8.38954531710764 11.447004442092847 4.934215232762034 0 0 0
216 2 9.128780076933918 10.960901284457927 5.354211534014058 0 0 0
232 1 8.674249779987559 11.559922611895576 1.9547596879942957 0 0 0
215 2 7.9583124656290085 12.010967387858157 5.6456020243110165 0 0 0
233 2 7.5592460480895705 13.519257584507741 3.9065880538424604 0 0 0
327 2 6.145264595817256 13.979645850762514 2.433203946119404 0 0 0
337 1 7.081522722784958 13.064843283252573 0.38982815512278357 0 0 0
338 2 6.417225715506562 12.737200545793565 0.9816290040603303 0 0 0
339 2 7.721432657934478 13.48870080762412 0.9557290799337268 0 0 0
367 1 7.1064523292539095 12.902368083823259 3.3496375217058634 0 0 0
368 2 6.5955172256892665 12.224545033686557 3.9967894607057857 0 0 0
362 2 8.266686712935304 10.726691100170354 1.4769324840347922 0 0 0
351 2 8.849143838146247 13.503411216114438 2.5507245599113637 0 0 0
234 2 9.397360451658173 10.775986961331496 3.1413802953088283 0 0 0
375 2 9.539227612153248 12.457226815952728 0.9236184562495778 0 0 0
381 2 9.072169843286163 14.324549953544839 5.451437182309299 0 0 0
349 1 8.621288713602748 14.351548888047176 1.7892250230418347 0 0 0
345 2 9.4324538019583 12.328736283113438 4.0606187927784 0 0 0
361 1 9.994603297193773 13.035667332476596 6.265442209258047 0 0 -1
196 1 10.189041346153736 10.172133515652627 0.456464504645956 0 0 0
343 1 9.908696363056908 12.955775273729401 3.380144683229407 0 0 0
363 2 10.787508454884513 13.665881639316074 1.4220142931405149 0 0 0
209 2 11.03061096598301 11.947521336304744 2.356801457510213 0 0 0
208 1 11.557338240593046 11.357663912259692 1.793603777340919 0 0 0
210 2 10.77891307111725 10.896917166515362 1.2748945550862705 0 0 0
228 2 10.86209692508001 10.98911443646798 4.3939303592654495 0 0 0
238 1 11.440397432587353 11.731024720457933 4.686073997067739 0 0 0
240 2 12.069476137686998 11.139009382536369 5.183452960498564 0 0 0
252 2 12.656338419030046 10.767470568059748 2.6481016682921035 0 0 0
263 2 13.816762612399145 11.071304348514266 4.299380203504365 0 0 0
281 2 13.426045535694344 10.93267682642537 0.7760004306787074 0 0 0
239 2 10.37019871841582 12.47994163162481 5.560883908088566 0 0 0
344 2 10.607441923515264 13.597904125246394 3.8332332275681344 0 0 0
264 2 13.426145444636761 12.328850634694653 5.8715099763773795 0 0 0
356 2 11.783080692398467 13.79626003794415 5.206670619985701 0 0 0
374 2 12.285118687131309 13.735557419466188 2.6323288626097114 0 0 0
385 1 12.86488259723061 13.126251850384547 6.163603089185582 0 0 -1
386 2 14.130098184483156 14.107437312218737 1.2176177191135378 0 0 0
387 2 12.442225332732257 12.738366216734638 0.9157691272584442 0 0 0
415 1 13.026194889831318 13.092335246000353 3.0422954885721007 0 0 0
416 2 13.690258751175033 12.057685063320127 2.092463701180125 0 0 0
417 2 12.77435053172487 12.323564091979453 3.6025604718353077 0 0 0
428 2 14.003594401736121 13.948775706715145 3.911691225508458 0 0 0
373 1 11.273191272301018 14.338570062551174 1.9313497734690226 0 0 0
262 1 14.435155305954051 11.644658136785216 4.7023748122380535 0 0 0
274 1 16.04535440506509 9.961799311585153 3.2894173836066494 0 0 0
289 1 1.2667185217782162 13.033045963405657 0.5218676214332135 0 0 0
244 1 15.850717295004047 10.179650950120328 6.268132208630047 0 0 -1
280 1 14.288569728362932 11.345266517546046 1.8326222533041205 0 0 0
245 2 15.318638457779151 10.799225809889712 5.745700996435414 0 0 -1
405 2 18.363007879237706 13.46710692103538 5.7592365102058025 0 0 0
282 2 15.657823463139461 10.50269957609815 2.5906655727896633 0 0 0
258 2 18.21561908251565 11.918198657437989 1.3178353722487013 0 0 0
155 2 18.251754126567135 10.608586778993205 2.6904233472102677 -1 0 0
174 2 18.488946196445333 10.378687203877181 5.810120898084564 -1 0 -1
246 2 16.547177982364285 10.678784263670362 0.6697087874317402 0 0 0
256 1 17.58219449210722 11.358190708659537 1.8608037743698187 0 0 0
275 2 16.90517037808959 10.754860215061104 4.234734805112328 0 0 0
286 1 17.314750458032826 11.472046178827828 4.874950719165727 0 0 0
257 2 16.963718432934478 11.962697698960534 2.3121196734400367 0 0 0
287 2 16.523242158784306 12.441616970285363 5.747511312807011 0 0 0
288 2 17.932501232887567 11.803590366749171 4.251188553772714 0 0 0
320 2 18.2392595572029 13.366816749240963 2.6925439719598967 -1 0 0
391 1 15.943052862604757 12.684060800641982 3.245919324816556 0 0 0
392 2 15.106958499696137 11.972117380189573 4.0056168948148265 0 0 0
393 2 15.437691820474301 13.29781065183069 2.5972381541437204 0 0 0
409 1 15.857341755839848 12.91186899108029 0.43714914242510705 0 0 0
410 2 15.298707067602663 13.557578949736698 5.832725083907513 0 0 -1
411 2 15.026167012843427 11.803102116025059 1.4268003199831385 0 0 0
422 2 16.710538220495188 13.879404039868763 1.1885525359983187 0 0 0
404 2 16.558662294812052 13.301247592607208 3.845967569188189 0 0 0
421 1 17.306283576661713 14.26293483331519 1.8198440190529808 0 0 0
331 1 2.622400785724696 14.481632202497472 4.696965304723184 0 0 0
297 2 3.463121952689225 14.712166472169448 1.1540826515711982 0 0 0
323 2 4.59399536362123 15.472265084313912 2.734104987316692 0 0 0
332 2 3.2815621640892063 14.920869837485673 4.090655358795463 0 0 0
303 2 3.9111100427064507 16.473983320168845 5.351464149791752 0 0 -1
2 2 1.6538911159710241 17.73230630650174 5.016755547693522 0 -1 -1
8 2 4.662333096037774 18.059856998000633 2.0577925908280754 0 -1 0
9 2 3.748210513879081 18.82601929924393 4.013198478391011 0 -1 0
27 2 5.177516061957582 17.861248917650165 5.422450454947285 0 -1 -1
32 2 2.219042678457372 18.053228879077224 2.366781839781558 0 -1 0
292 1 4.154911617833946 15.940346296734825 6.120160382175034 0 0 -1
294 2 4.543226518409277 16.59680697010671 0.9191866527205274 0 0 0
310 1 2.2981678317621457 17.181203127585192 4.727111060581461 0 0 0
312 2 1.907448663608478 16.587920896812317 4.153882372420281 0 0 0
318 2 1.6310154484859432 15.386127452904207 5.8900102842421935 0 0 -1
322 1 4.139756900549282 15.91161059262935 3.434191833941585 0 0 0
324 2 3.6313467132574813 16.75736896414772 2.9498931658487093 0 0 0
328 1 2.736382862848944 17.41609269322251 1.8640891413928973 0 0 0
329 2 3.079638420241932 18.552628660726413 0.4427198758673283 0 0 0
330 2 2.1963619462703754 16.803924084299844 1.30341227400744 0 0 0
293 2 5.058165164628736 15.034460319748236 5.151601062561358 0 0 -1
300 2 1.9190709240171284 15.096355173356578 2.689742500411784 0 0 0
335 2 5.2249783062232105 16.808855880040973 4.294423946616139 0 0 0
325 1 5.494046403497241 14.397433188514782 1.8962800768458135 0 0 0
304 1 5.314867037828492 17.27715144790934 1.8790525301167296 0 0 0
73 1 10.00531584683885 18.87274487911413 6.171138102579761 0 -1 -1
307 1 5.657464943510729 14.395940742308419 4.644935778904657 0 0 0
334 1 5.702479988753687 17.471820462202054 4.825944064340225 0 0 0
79 1 7.156392835712079 1.2959928766353523 3.1059821679512103 0 0 0
49 1 7.214696197106316 1.1730446997943602 0.4769167472852278 0 0 0
379 1 8.47125934468169 14.562788260530324 4.797707033347922 0 0 0
369 2 9.140984613293377 15.128782907807405 4.339762824126916 0 0 0
336 2 6.47923405124511 18.788254998908656 3.8210455571067516 0 0 0
75 2 9.404451505191362 18.170812499524295 0.7426360954505247 0 -1 0
366 2 6.592763249188273 16.450524958025152 5.718383607029011 0 0 -1
326 2 5.857745398236571 15.127943352086325 1.3136257272865657 0 0 0
380 2 7.582856291911187 15.509141451836562 5.680168041361849 0 0 0
50 2 7.773020537939746 18.60016851859548 5.603861038390602 0 -1 -1
305 2 5.972924665968935 17.805384893785558 1.3429430254494403 0 0 0
306 2 6.527755461000469 16.541157326841283 2.663122522542716 0 0 0
346 1 7.128261472972469 15.976960875296296 3.1944036812497996 0 0 0
347 2 8.16838123571119 14.992930462261846 2.289768412151747 0 0 0
348 2 6.7749482533406695 15.440325382515745 3.8458212179011997 0 0 0
360 2 7.993011925431761 16.843269797888706 3.9284302899372148 0 0 0
364 1 7.12074026412407 15.931575771156343 0.45205986211122035 0 0 0
365 2 7.9936127152395 16.86910710683382 1.4502008295666238 0 0 0
377 2 8.001273328044844 18.083246002477715 2.301485229082188 0 0 0
358 1 8.435031174225458 17.482193404361652 4.713051551141446 0 0 0
359 2 8.952714364802734 18.069955144993386 4.1859053497931455 0 0 0
376 1 8.60452906295756 17.42429033240431 1.8960508930441795 0 0 0
378 2 9.343729237201968 16.44828845075477 2.80539840214258 0 0 0
342 2 9.336096614100484 16.387871353961533 5.8844275357888645 0 0 -1
350 2 9.560449494357885 15.194571346104329 1.110686620507054 0 0 0
340 1 10.126828423317349 15.7445398159243 0.3972528090184715 0 0 0
370 1 9.899827457813366 15.864242567208006 3.4527235158247094 0 0 0
355 1 11.268015597046665 14.43759799683035 4.734248520740419 0 0 0
97 1 12.815742379738959 18.893329349998552 6.064134873401536 0 -1 -1
372 2 10.655485815914215 14.891960675152946 2.797259128582646 0 0 0
357 2 10.95564852518231 15.120886294497673 5.300750236901068 0 0 0
398 2 13.605377222649505 15.314797464949791 2.389830597630827 0 0 0
74 2 10.211564307806976 18.358079730511506 5.381135088422775 0 -1 -1
341 2 10.922995490767473 16.655995773316935 0.8739095142864415 0 0 0
352 1 11.423454659742093 17.265163405290366 1.7260413462281774 0 0 0
354 2 10.383732701909171 18.098909342994546 2.382454950707383 0 0 0
371 2 10.586507935160615 16.6954490347363 3.9111101625216143 0 0 0
382 1 11.44645802440275 17.264489739169733 4.734797711959956 0 0 0
98 2 13.418220217036332 18.46020843456634 5.457673868237031 0 -1 -1
99 2 11.948997531572765 17.73350200073469 1.1277303583161573 0 -1 0
129 2 13.723297420753862 18.383201364181417 2.7190470352162595 0 -1 0
353 2 12.205533960428877 16.45122791487527 2.6393825419274455 0 0 0
383 2 12.030652080178221 16.79386919180415 5.373893025507469 0 0 0
384 2 12.043596242010421 17.878569578587133 4.309507764634311 0 0 0
394 1 12.973779774391879 16.014874991089336 3.207867776970794 0 0 0
395 2 14.113293207404762 16.943044391521674 3.8775484312027384 0 0 0
396 2 12.514554215865525 15.371173729635274 3.7642038463212786 0 0 0
412 1 12.905973584624908 15.95261119219447 6.218991245235073 0 0 -1
413 2 12.276367695423703 15.43079197247169 0.7829256490411356 0 0 0
414 2 13.665119113790961 15.47625006795496 5.840856663448249 0 0 -1
426 2 13.780342926980454 17.136545461179892 1.1796919661461511 0 0 0
397 1 14.413563224708412 14.714884199669676 1.8902635711876852 0 0 0
406 1 14.437901794522519 17.382971620599882 4.624730705280587 0 0 0
427 1 14.51194060447986 14.392522320289642 4.593198491690127 0 0 0
424 1 14.438872449876015 17.430395433140248 1.8143181607472287 0 0 0
403 1 17.356458382814004 14.299323071718526 4.538727982761985 0 0 0
316 1 18.613915786582645 15.683110108197251 0.39317113029707546 -1 0 0
298 1 18.863138628109752 15.65709579797148 3.1748455715503767 -1 0 0
425 2 15.35334324041565 16.35222808617336 2.6085985593322603 0 0 0
317 2 18.23711351168113 16.230902600489706 5.603844349521912 -1 0 -1
311 2 18.43516148580435 16.331240070403766 2.5991036418456823 -1 0 0
399 2 15.518804264003473 15.577904807896209 0.9728370256958663 0 0 0
402 2 18.452094689029728 18.32462584374734 0.8558341254648377 0 0 0
429 2 14.934310108101883 15.037846905186871 4.159934708468952 0 0 0
423 2 18.05602696755647 14.80659723767494 1.2326741752399641 0 0 0
407 2 15.355329845777828 16.3912144779638 5.466989438496301 0 0 0
408 2 15.077215101429331 17.976906630733936 4.249269094130706 0 0 0
123 2 15.14807888377124 18.020131680094806 1.3254497325056125 0 -1 0
299 2 17.936195370412648 14.885281404744617 3.9363932955550727 -1 0 0
388 1 15.892824923511894 16.012872573326177 6.065167869123418 0 0 -1
389 2 16.809908174873332 14.979748330872168 5.044416756107596 0 0 -1
390 2 16.804949468644775 16.998393863901036 1.300595064076279 0 0 0
400 1 17.455833137813777 17.604648595371522 1.668421279900129 0 0 0
401 2 17.07689953023899 18.131877535628618 2.4091913948173995 0 0 0
418 1 15.952047895527622 15.927097315717116 3.282548332916803 0 0 0
419 2 16.802292167320694 16.731880481626916 3.984382030275987 0 0 0
420 2 16.429985278805212 15.18074563788847 2.6496238607952707 0 0 0
430 1 17.404052986762643 17.29329771707655 4.691903897795468 0 0 0
431 2 18.500113066810684 18.363651091780923 3.88575745417079 0 0 0
432 2 16.850469117148023 17.869239444003377 5.326327326185801 0 0 0

Velocities

4 -6.959212092967599 8.157217819382005 -3.6627426471950586
5 4.260785706839308 31.741555659589395 -18.09735144999891
12 9.875077048926968 15.130864325665964 -9.27343267416476
13 0.16014738195069128 16.03368267568459 4.076192643691249
15 -25.684446718226887 38.06797107136862 -2.687845855010867
26 77.62001128494616 -45.40673908602747 8.336845905113064
30 -33.296711215106384 -8.40060169168979 -22.96833332993326
34 1.8952107194800996 -2.129794405396439 -0.201268893808882
35 -8.87843408293035 17.851180929938653 0.8921328117508636
43 -0.7563221562405797 -2.3153323658563485 -11.87414995644504