
     Program PWSCF v.5.4.0 starts on 22Sep2019 at 19:35: 1 

     This program is part of the open-source Quantum ESPRESSO suite
     for quantum simulation of materials; please cite
         "P. Giannozzi et al., J. Phys.:Condens. Matter 21 395502 (2009);
          URL http://www.quantum-espresso.org", 
     in publications or presentations arising from this work. More details at
     http://www.quantum-espresso.org/quote

           HOST :    @host@
           ARCH :    
             CC :    cc
            CPP :    cpp
            F90 :    mpif90
            F77 :    gfortran
         DFLAGS :    -D__GFORTRAN -D__STD_F95 -D__FFTW3 -D__MPI -D__PARA
      BLAS LIBS :    -lopenblas
    LAPACK LIBS :    -lopenblas
       FFT LIBS :    -lfftw3
      MASS LIBS :    

     Parallel version (MPI), running on    28 processors
     R & G space division:  proc/nbgrp/npool/nimage =      28
     Waiting for input...
     Reading input from standard input
Warning: card &IONS ignored
Warning: card / ignored
Warning: card &CELL ignored
Warning: card / ignored

     Current dimensions of program PWSCF are:
     Max number of different atomic species (ntypx) = 10
     Max number of k-points (npk) =  40000
     Max angular momentum in pseudopotentials (lmaxx) =  3

     IMPORTANT: XC functional enforced from input :
     Exchange-correlation      = PBE ( 1  4  3  4 0 0)
     Any further DFT definition will be discarded
     Please, verify this is what you really want


     gamma-point specific algorithms are used

     Subspace diagonalization in iterative solution of the eigenvalue problem:
     a serial algorithm will be used


     Parallelization info
     --------------------
     sticks:   dense  smooth     PW     G-vecs:    dense   smooth      PW
     Min         445     445    110                37558    37558    4694
     Max         448     448    112                37564    37564    4708
     Sum       12517   12517   3125              1051747  1051747  131683
     Tot        6259    6259   1563



     bravais-lattice index     =            1
     lattice parameter (alat)  =      18.8973  a.u.
     unit-cell volume          =    6748.3346 (a.u.)^3
     number of atoms/cell      =            5
     number of atomic types    =            2
     number of electrons       =         8.00
     number of Kohn-Sham states=            4
     kinetic-energy cutoff     =     110.0000  Ry
     charge density cutoff     =     440.0000  Ry
     convergence threshold     =      1.0E-06
     mixing beta               =       0.5000
     number of iterations used =            8  plain     mixing
     Exchange-correlation      = PBE ( 1  4  3  4 0 0)

     celldm(1)=  18.897261  celldm(2)=   0.000000  celldm(3)=   0.000000
     celldm(4)=   0.000000  celldm(5)=   0.000000  celldm(6)=   0.000000

     crystal axes: (cart. coord. in units of alat)
               a(1) = (   1.000000   0.000000   0.000000 )  
               a(2) = (   0.000000   1.000000   0.000000 )  
               a(3) = (   0.000000   0.000000   1.000000 )  

     reciprocal axes: (cart. coord. in units 2 pi/alat)
               b(1) = (  1.000000  0.000000  0.000000 )  
               b(2) = (  0.000000  1.000000  0.000000 )  
               b(3) = (  0.000000  0.000000  1.000000 )  


     PseudoPot. # 1 for  H read from file:
     ../pseudo/H.tm.pbe.UPF
     MD5 check sum: 4b614d66af87240b7a5107bfa527a767
     Pseudo is Norm-conserving, Zval =  1.0
     Generated using "atomic" code by A. Dal Corso  v.5.2.0
     Using radial grid of  929 points,  0 beta functions with: 

     PseudoPot. # 2 for  C read from file:
     ../pseudo/C.tm.pbe.UPF
     MD5 check sum: a4f27fcb9b24331b00ace8e732a7e062
     Pseudo is Norm-conserving, Zval =  4.0
     Generated using "atomic" code by A. Dal Corso  v.5.2.0
     Using radial grid of 1073 points,  1 beta functions with: 
                l(1) =   1

     atomic species   valence    mass     pseudopotential
        H              1.00     1.00000      H( 1.00)
        C              4.00     1.00000      C( 1.00)

     No symmetry found



   Cartesian axes

     site n.     atom                  positions (alat units)
         1           H   tau(   1) = (   0.5421910   0.4107480   0.3578900  )
         2           H   tau(   2) = (   0.3974760   0.4792490   0.4406050  )
         3           H   tau(   3) = (   0.5537770   0.5740750   0.4372150  )
         4           H   tau(   4) = (   0.5362110   0.4193590   0.5348180  )
         5           C   tau(   5) = (   0.5079490   0.4712370   0.4438280  )

     number of k points=     1
                       cart. coord. in units 2pi/alat
        k(    1) = (   0.0000000   0.0000000   0.0000000), wk =   2.0000000

     Dense  grid:   525874 G-vectors     FFT dimensions: ( 128, 128, 128)

     Largest allocated arrays     est. size (Mb)     dimensions
        Kohn-Sham Wavefunctions         0.14 Mb     (    2354,    4)
        NL pseudopotentials             0.11 Mb     (    2354,    3)
        Each V/rho on FFT grid          1.25 Mb     (   81920)
        Each G-vector array             0.14 Mb     (   18782)
        G-vector shells                 0.02 Mb     (    2785)
     Largest temporary arrays     est. size (Mb)     dimensions
        Auxiliary wavefunctions         0.29 Mb     (    2354,   16)
        Each subspace H/S matrix        0.00 Mb     (      16,   16)
        Each <psi_i|beta_j> matrix      0.00 Mb     (       3,    4)
        Arrays for rho mixing          10.00 Mb     (   81920,    8)

     Initial potential from superposition of free atoms
     Check: negative starting charge=   -0.000382

     starting charge    7.99992, renormalised to    8.00000

     negative rho (up, down):  3.816E-04 0.000E+00
     Starting wfc are    8 randomized atomic wfcs

     total cpu time spent up to now is        2.9 secs

     per-process dynamical memory:   430.8 Mb

     Self-consistent Calculation

     iteration #  1     ecut=   110.00 Ry     beta=0.50
     Davidson diagonalization with overlap
     ethr =  1.00E-02,  avg # of iterations =  2.0

     negative rho (up, down):  1.804E-04 0.000E+00

     total cpu time spent up to now is        3.5 secs

     total energy              =     -16.02290384 Ry
     Harris-Foulkes estimate   =     -16.39979401 Ry
     estimated scf accuracy    <       0.67031281 Ry

     iteration #  2     ecut=   110.00 Ry     beta=0.50
     Davidson diagonalization with overlap
     ethr =  8.38E-03,  avg # of iterations =  2.0

     negative rho (up, down):  9.508E-05 0.000E+00

     total cpu time spent up to now is        3.9 secs

     total energy              =     -16.15243491 Ry
     Harris-Foulkes estimate   =     -16.17204001 Ry
     estimated scf accuracy    <       0.05075547 Ry

     iteration #  3     ecut=   110.00 Ry     beta=0.50
     Davidson diagonalization with overlap
     ethr =  6.34E-04,  avg # of iterations =  1.0

     negative rho (up, down):  5.533E-06 0.000E+00

     total cpu time spent up to now is        4.4 secs

     total energy              =     -16.15088636 Ry
     Harris-Foulkes estimate   =     -16.15636922 Ry
     estimated scf accuracy    <       0.01153247 Ry

     iteration #  4     ecut=   110.00 Ry     beta=0.50
     Davidson diagonalization with overlap
     ethr =  1.44E-04,  avg # of iterations =  3.0

     negative rho (up, down):  4.961E-06 0.000E+00

     total cpu time spent up to now is        5.0 secs

     total energy              =     -16.15282050 Ry
     Harris-Foulkes estimate   =     -16.15526354 Ry
     estimated scf accuracy    <       0.00565237 Ry

     iteration #  5     ecut=   110.00 Ry     beta=0.50
     Davidson diagonalization with overlap
     ethr =  7.07E-05,  avg # of iterations =  2.0

     negative rho (up, down):  2.083E-06 0.000E+00

     total cpu time spent up to now is        5.5 secs

     total energy              =     -16.15322057 Ry
     Harris-Foulkes estimate   =     -16.15335084 Ry
     estimated scf accuracy    <       0.00028419 Ry

     iteration #  6     ecut=   110.00 Ry     beta=0.50
     Davidson diagonalization with overlap
     ethr =  3.55E-06,  avg # of iterations =  3.0

     negative rho (up, down):  4.386E-08 0.000E+00

     total cpu time spent up to now is        6.1 secs

     total energy              =     -16.15337164 Ry
     Harris-Foulkes estimate   =     -16.15337563 Ry
     estimated scf accuracy    <       0.00002097 Ry

     iteration #  7     ecut=   110.00 Ry     beta=0.50
     Davidson diagonalization with overlap
     ethr =  2.62E-07,  avg # of iterations =  1.0

     total cpu time spent up to now is        6.5 secs

     total energy              =     -16.15337008 Ry
     Harris-Foulkes estimate   =     -16.15337282 Ry
     estimated scf accuracy    <       0.00000823 Ry

     iteration #  8     ecut=   110.00 Ry     beta=0.50
     Davidson diagonalization with overlap
     ethr =  1.03E-07,  avg # of iterations =  1.0

     total cpu time spent up to now is        7.0 secs

     total energy              =     -16.15337047 Ry
     Harris-Foulkes estimate   =     -16.15337073 Ry
     estimated scf accuracy    <       0.00000166 Ry

     iteration #  9     ecut=   110.00 Ry     beta=0.50
     Davidson diagonalization with overlap
     ethr =  2.08E-08,  avg # of iterations =  2.0

     total cpu time spent up to now is        7.5 secs

     End of self-consistent calculation

          k = 0.0000 0.0000 0.0000 ( 65842 PWs)   bands (ev):

   -16.7530  -9.3320  -9.1931  -9.1037

     highest occupied level (ev):    -9.1037

!    total energy              =     -16.15337045 Ry
     Harris-Foulkes estimate   =     -16.15337069 Ry
     estimated scf accuracy    <       0.00000036 Ry

     The total energy is the sum of the following terms:

     one-electron contribution =     -39.92081135 Ry
     hartree contribution      =      20.78252370 Ry
     xc contribution           =      -6.31475085 Ry
     ewald contribution        =       9.29966804 Ry

     convergence has been achieved in   9 iterations

     Forces acting on atoms (Ry/au):

     atom    1 type  1   force =    -0.00389566    0.00766006    0.00564937
     atom    2 type  1   force =     0.01398112    0.00148166   -0.00122445
     atom    3 type  1   force =    -0.01403034   -0.03478188    0.00697997
     atom    4 type  1   force =     0.00756044    0.00027760    0.01490889
     atom    5 type  2   force =    -0.00361557    0.02536256   -0.02631377

     Total force =     0.058211     Total SCF correction =     0.000371


     entering subroutine stress ...

          total   stress  (Ry/bohr**3)                   (kbar)     P=   -1.02
  -0.00000785  -0.00000418   0.00000299         -1.15     -0.61      0.44
  -0.00000418  -0.00001327  -0.00000115         -0.61     -1.95     -0.17
   0.00000299  -0.00000115   0.00000038          0.44     -0.17      0.06


     init_run     :      2.57s CPU      2.58s WALL (       1 calls)
     electrons    :      4.52s CPU      4.57s WALL (       1 calls)
     forces       :      0.89s CPU      0.90s WALL (       1 calls)
     stress       :      1.09s CPU      1.10s WALL (       1 calls)

     Called by init_run:
     wfcinit      :      0.19s CPU      0.19s WALL (       1 calls)
     potinit      :      1.03s CPU      1.04s WALL (       1 calls)

     Called by electrons:
     c_bands      :      2.02s CPU      2.03s WALL (       9 calls)
     sum_band     :      0.49s CPU      0.49s WALL (       9 calls)
     v_of_rho     :      1.93s CPU      1.96s WALL (      10 calls)
     mix_rho      :      0.25s CPU      0.25s WALL (       9 calls)

     Called by c_bands:
     init_us_2    :      0.04s CPU      0.05s WALL (      19 calls)
     regterg      :      1.98s CPU      1.99s WALL (       9 calls)

     Called by sum_band:

     Called by *egterg:
     h_psi        :      2.12s CPU      2.13s WALL (      27 calls)
     g_psi        :      0.01s CPU      0.01s WALL (      17 calls)
     rdiaghg      :      0.00s CPU      0.00s WALL (      26 calls)

     Called by h_psi:
     add_vuspsi   :      0.00s CPU      0.00s WALL (      27 calls)

     General routines
     calbec       :      0.85s CPU      0.85s WALL (      32 calls)
     fft          :      1.82s CPU      1.86s WALL (     117 calls)
     fftw         :      1.31s CPU      1.32s WALL (     124 calls)

     Parallel routines
     fft_scatter  :      1.29s CPU      1.33s WALL (     241 calls)

     PWSCF        :     9.41s CPU         9.54s WALL


   This run was terminated on:  19:35:11  22Sep2019            

=------------------------------------------------------------------------------=
   JOB DONE.
=------------------------------------------------------------------------------=
