    6    6    1    1
  0.5000000E+03  0.3000000E-08  0.1000000E-08  0.1000000E-08  0.5000000E-15
  1.000000000000000E-004
  CAR 
 unknown system                          
     16      2     12
 
  0.0000000E+00  0.2500000E+00  0.2500000E+00  0.5000000E+00
    1      -24.824025   1.000000
    2      -24.594632   1.000000
    3      -12.633921   1.000000
    4      -12.376624   1.000000
    5       -9.394296   1.000000
    6       -9.146070   1.000000
    7       -7.188724   1.000000
    8       -6.928012   1.000000
    9       -1.236437   0.000000
   10       -0.933867   0.000000
   11        0.168303   0.000000
   12        0.293435   0.000000
 
  0.0000000E+00 -0.2500000E+00  0.2500000E+00  0.5000000E+00
    1      -24.824025   1.000000
    2      -24.594632   1.000000
    3      -12.633921   1.000000
    4      -12.376624   1.000000
    5       -9.394296   1.000000
    6       -9.146070   1.000000
    7       -7.188724   1.000000
    8       -6.928012   1.000000
    9       -1.236439   0.000000
   10       -0.933850   0.000000
   11        0.168760   0.000000
   12        0.291297   0.000000
