 vasp.5.4.4.18Apr17-6-g9f103f2a35 (build Nov 25 2019 16:34:31) complex          
  
 executed on             LinuxIFC date 2021.04.06  12:18:02
 running on   32 total cores
 distrk:  each k-point on   32 cores,    1 groups
 distr:  one band on NCORES_PER_BAND=  16 cores,    2 groups


--------------------------------------------------------------------------------------------------------


 INCAR:
 POTCAR:    PAW_PBE O_h 06Feb2004                 
 POTCAR:    PAW_PBE H_h 06Feb2004                 

 ----------------------------------------------------------------------------- 
|                                                                             |
|           W    W    AA    RRRRR   N    N  II  N    N   GGGG   !!!           |
|           W    W   A  A   R    R  NN   N  II  NN   N  G    G  !!!           |
|           W    W  A    A  R    R  N N  N  II  N N  N  G       !!!           |
|           W WW W  AAAAAA  RRRRR   N  N N  II  N  N N  G  GGG   !            |
|           WW  WW  A    A  R   R   N   NN  II  N   NN  G    G                |
|           W    W  A    A  R    R  N    N  II  N    N   GGGG   !!!           |
|                                                                             |
|      For optimal performance we recommend to set                            |
|        NCORE= 4 - approx SQRT( number of cores)                             |
|      NCORE specifies how many cores store one orbital (NPAR=cpu/NCORE).     |
|      This setting can  greatly improve the performance of VASP for DFT.     |
|      The default,   NCORE=1            might be grossly inefficient         |
|      on modern multi-core architectures or massively parallel machines.     |
|      Do your own testing !!!!                                               |
|      Unfortunately you need to use the default for GW and RPA calculations. |
|      (for HF NCORE is supported but not extensively tested yet)             |
|                                                                             |
 ----------------------------------------------------------------------------- 

 POTCAR:    PAW_PBE O_h 06Feb2004                 
   VRHFIN =O: s2p4                                                              
   LEXCH  = PE                                                                  
   EATOM  =   432.3788 eV,   31.7789 Ry                                         
                                                                                
   TITEL  = PAW_PBE O_h 06Feb2004                                               
   LULTRA =        F    use ultrasoft PP ?                                      
   IUNSCR =        1    unscreen: 0-lin 1-nonlin 2-no                           
   RPACOR =    0.800    partial core radius                                     
   POMASS =   16.000; ZVAL   =    6.000    mass and valenz                      
   RCORE  =    1.100    outmost cutoff radius                                   
   RWIGS  =    1.400; RWIGS  =    0.741    wigner-seitz radius (au A)           
   ENMAX  =  700.000; ENMIN  =  500.000 eV                                      
   ICORE  =        2    local potential                                         
   LCOR   =        T    correct aug charges                                     
   LPAW   =        T    paw PP                                                  
   EAUG   =  888.804                                                            
   DEXC   =    0.000                                                            
   RMAX   =    1.128    core radius for proj-oper                               
   RAUG   =    1.300    factor for augmentation sphere                          
   RDEP   =    1.125    radius for radial grids                                 
   RDEPT  =    1.088    core radius for aug-charge                              
                                                                                
   Atomic configuration                                                         
    4 entries                                                                   
     n  l   j            E        occ.                                          
     1  0  0.50      -514.6923   2.0000                                         
     2  0  0.50       -23.9615   2.0000                                         
     2  1  0.50        -9.0305   4.0000                                         
     3  2  1.50        -9.5241   0.0000                                         
   Description                                                                  
     l       E           TYP  RCUT    TYP  RCUT                                 
     0    -23.9615319     23  1.100                                             
     0    -25.3221145     23  1.100                                             
     1     -9.0304911     23  1.100                                             
     1     -5.4802209     23  1.100                                             
     2     -9.5240782      7  1.100                                             
  local pseudopotential read in
  partial core-charges read in
  partial kinetic energy density read in
  atomic valenz-charges read in
  non local Contribution for L=           0  read in
    real space projection operators read in
  non local Contribution for L=           0  read in
    real space projection operators read in
  non local Contribution for L=           1  read in
    real space projection operators read in
  non local Contribution for L=           1  read in
    real space projection operators read in
    PAW grid and wavefunctions read in
 
   number of l-projection  operators is LMAX  =           4
   number of lm-projection operators is LMMAX =           8
 
 POTCAR:    PAW_PBE H_h 06Feb2004                 
   VRHFIN =H: ultrasoft test                                                    
   LEXCH  = PE                                                                  
   EATOM  =    12.4884 eV,    0.9179 Ry                                         
                                                                                
   TITEL  = PAW_PBE H_h 06Feb2004                                               
   LULTRA =        F    use ultrasoft PP ?                                      
   IUNSCR =        0    unscreen: 0-lin 1-nonlin 2-no                           
   RPACOR =    0.000    partial core radius                                     
   POMASS =    1.000; ZVAL   =    1.000    mass and valenz                      
   RCORE  =    0.800    outmost cutoff radius                                   
   RWIGS  =    0.700; RWIGS  =    0.370    wigner-seitz radius (au A)           
   ENMAX  =  700.000; ENMIN  =  350.000 eV                                      
   RCLOC  =    0.701    cutoff for local pot                                    
   LCOR   =        T    correct aug charges                                     
   LPAW   =        T    paw PP                                                  
   EAUG   = 1000.000                                                            
   RMAX   =    0.819    core radius for proj-oper                               
   RAUG   =    1.000    factor for augmentation sphere                          
   RDEP   =    0.817    radius for radial grids                                 
   RDEPT  =    0.817    core radius for aug-charge                              
                                                                                
   Atomic configuration                                                         
    2 entries                                                                   
     n  l   j            E        occ.                                          
     1  0  0.50        -6.4927   1.0000                                         
     2  1  0.50        -3.4015   0.0000                                         
   Description                                                                  
     l       E           TYP  RCUT    TYP  RCUT                                 
     0     -6.4927493     23  0.800                                             
     0      6.8029130     23  0.800                                             
     1     -6.8029130     23  0.800                                             
  local pseudopotential read in
  atomic valenz-charges read in
  non local Contribution for L=           0  read in
    real space projection operators read in
  non local Contribution for L=           0  read in
    real space projection operators read in
  non local Contribution for L=           1  read in
    real space projection operators read in
    PAW grid and wavefunctions read in
 
   number of l-projection  operators is LMAX  =           3
   number of lm-projection operators is LMMAX =           5
 
  PAW_PBE O_h 06Feb2004                 :
 energy of atom  1       EATOM= -432.3788
 kinetic energy error for atom=    0.0035 (will be added to EATOM!!)
  PAW_PBE H_h 06Feb2004                 :
 energy of atom  2       EATOM=  -12.4884
 kinetic energy error for atom=    0.0001 (will be added to EATOM!!)
 
 
 POSCAR: O2 H4                                   
  positions in cartesian coordinates
  No initial velocities read in
 exchange correlation table for  LEXCH =        8
   RHO(1)=    0.500       N(1)  =     2000
   RHO(2)=  100.500       N(2)  =     4000
 


--------------------------------------------------------------------------------------------------------


 ion  position               nearest neighbor table
   1  0.189  0.157  0.176-   4 1.01   3 1.03
   2  0.955  0.157  0.176-   6 1.02   5 1.02
   3  0.199  0.255  0.174-   1 1.03
   4  0.155  0.167  0.176-   1 1.01
   5  0.946  0.099  0.256-   2 1.02
   6  0.946  0.099  0.096-   2 1.02
 
  LATTYP: Found a simple tetragonal cell.
 ALAT       =    10.0000000000
 C/A-ratio  =     3.0000000000
  
  Lattice vectors:
  
 A1 = (   0.0000000000,  10.0000000000,   0.0000000000)
 A2 = (   0.0000000000,   0.0000000000, -10.0000000000)
 A3 = ( -30.0000000000,   0.0000000000,   0.0000000000)


Analysis of symmetry for initial positions (statically):
=====================================================================
 Subroutine PRICEL returns:
 Original cell was already a primitive cell.
 

 Routine SETGRP: Setting up the symmetry group for a 
 simple tetragonal supercell.


 Subroutine GETGRP returns: Found  1 space group operations
 (whereof  1 operations were pure point group operations)
 out of a pool of 16 trial point group operations.


The static configuration has the point symmetry C_1 .


Analysis of symmetry for dynamics (positions and initial velocities):
=====================================================================
 Subroutine PRICEL returns:
 Original cell was already a primitive cell.
 

 Routine SETGRP: Setting up the symmetry group for a 
 simple tetragonal supercell.


 Subroutine GETGRP returns: Found  1 space group operations
 (whereof  1 operations were pure point group operations)
 out of a pool of 16 trial point group operations.


The dynamic configuration has the point symmetry C_1 .


 Subroutine INISYM returns: Found  1 space group operations
 (whereof  1 operations are pure point group operations),
 and found     1 'primitive' translations

 
 

Automatic generation of k-mesh.
 generate k-points for:    1    2    2
Space group operators:
 irot       det(A)        alpha          n_x          n_y          n_z        tau_x        tau_y        tau_z
    1     1.000000     0.000000     1.000000     0.000000     0.000000     0.000000     0.000000     0.000000
 
 Subroutine IBZKPT returns following result:
 ===========================================
 
 Found      2 irreducible k-points:
 
 Following reciprocal coordinates:
            Coordinates               Weight
  0.000000  0.250000  0.250000      2.000000
  0.000000 -0.250000  0.250000      2.000000
 
 Following cartesian coordinates:
            Coordinates               Weight
  0.000000  0.025000  0.025000      2.000000
  0.000000 -0.025000  0.025000      2.000000
 


--------------------------------------------------------------------------------------------------------




 Dimension of arrays:
   k-points           NKPTS =      2   k-points in BZ     NKDIM =      2   number of bands    NBANDS=     12
   number of dos      NEDOS =    301   number of ions     NIONS =      6
   non local maximal  LDIM  =      4   non local SUM 2l+1 LMDIM =      8
   total plane-waves  NPLWV = ******
   max r-space proj   IRMAX =      1   max aug-charges    IRDMAX=  15018
   dimension x,y,z NGX =   384 NGY =  126 NGZ =  126
   dimension x,y,z NGXF=   768 NGYF=  252 NGZF=  252
   support grid    NGXF=   768 NGYF=  252 NGZF=  252
   ions per type =               2   4
   NGX,Y,Z   is equivalent  to a cutoff of  21.28, 20.95, 20.95 a.u.
   NGXF,Y,Z  is equivalent  to a cutoff of  42.56, 41.89, 41.89 a.u.

 SYSTEM =  unknown system                          
 POSCAR =  O2 H4                                   

 Startparameter for this run:
   NWRITE =      2    write-flag & timer
   PREC   = a         normal or accurate (medium, high low for compatibility)
   ISTART =      0    job   : 0-new  1-cont  2-samecut
   ICHARG =      2    charge: 1-file 2-atom 10-const
   ISPIN  =      1    spin polarized calculation?
   LNONCOLLINEAR =      F non collinear calculations
   LSORBIT =      F    spin-orbit coupling
   INIWAV =      1    electr: 0-lowe 1-rand  2-diag
   LASPH  =      F    aspherical Exc in radial PAW
   METAGGA=      F    non-selfconsistent MetaGGA calc.

 Electronic Relaxation 1
   ENCUT  = 1500.0 eV 110.25 Ry   10.50 a.u.  94.74 31.58 31.58*2*pi/ulx,y,z
   ENINI  = 1500.0     initial cutoff
   ENAUG  = 1000.0 eV  augmentation charge cutoff
   NELM   =    300;   NELMIN=  4; NELMDL=  0     # of ELM steps 
   EDIFF  = 0.1E-07   stopping-criterion for ELM
   LREAL  =      F    real-space projection
   NLSPLINE    = F    spline interpolate recip. space projectors
   LCOMPAT=      F    compatible to vasp.4.4
   GGA_COMPAT  = T    GGA compatible to vasp.4.4-vasp.4.6
   LMAXPAW     = -100 max onsite density
   LMAXMIX     =    2 max onsite mixed and CHGCAR
   VOSKOWN=      0    Vosko Wilk Nusair interpolation
   ROPT   =    0.00000   0.00000
 Ionic relaxation
   EDIFFG = 0.1E-06   stopping-criterion for IOM
   NSW    =      0    number of steps for IOM
   NBLOCK =      1;   KBLOCK =      1    inner block; outer block 
   IBRION =     -1    ionic relax: 0-MD 1-quasi-New 2-CG
   NFREE  =      0    steps in history (QN), initial steepest desc. (CG)
   ISIF   =      2    stress and relaxation
   IWAVPR =     10    prediction:  0-non 1-charg 2-wave 3-comb
   ISYM   =      2    0-nonsym 1-usesym 2-fastsym
   LCORR  =      T    Harris-Foulkes like correction to forces

   POTIM  = 0.5000    time-step for ionic-motion
   TEIN   =    0.0    initial temperature
   TEBEG  =    0.0;   TEEND  =   0.0 temperature during run
   SMASS  =  -3.00    Nose mass-parameter (am)
   estimated Nose-frequenzy (Omega)   =  0.10E-29 period in steps =****** mass=  -0.206E-25a.u.
   SCALEE = 1.0000    scale energy and forces
   NPACO  =    256;   APACO  = 16.0  distance and # of slots for P.C.
   PSTRESS=    0.0 pullay stress

  Mass of Ions in am
   POMASS =  16.00  1.00
  Ionic Valenz
   ZVAL   =   6.00  1.00
  Atomic Wigner-Seitz radii
   RWIGS  =  -1.00 -1.00
  virtual crystal weights 
   VCA    =   1.00  1.00
   NELECT =      16.0000    total number of electrons
   NUPDOWN=      -1.0000    fix difference up-down

 DOS related values:
   EMIN   =  10.00;   EMAX   =-10.00  energy-range for DOS
   EFERMI =   0.00
   ISMEAR =     0;   SIGMA  =   0.05  broadening in eV -4-tet -1-fermi 0-gaus

 Electronic relaxation 2 (details)
   IALGO  =     68    algorithm
   LDIAG  =      T    sub-space diagonalisation (order eigenvalues)
   LSUBROT=      F    optimize rotation matrix (better conditioning)
   TURBO    =      0    0=normal 1=particle mesh
   IRESTART =      0    0=no restart 2=restart with 2 vectors
   NREBOOT  =      0    no. of reboots
   NMIN     =      0    reboot dimension
   EREF     =   0.00    reference energy to select bands
   IMIX   =      4    mixing-type and parameters
     AMIX     =   0.40;   BMIX     =  1.00
     AMIX_MAG =   1.60;   BMIX_MAG =  1.00
     AMIN     =   0.01
     WC   =   100.;   INIMIX=   1;  MIXPRE=   1;  MAXMIX= -45

 Intra band minimization:
   WEIMIN = 0.0000     energy-eigenvalue tresh-hold
   EBREAK =  0.21E-09  absolut break condition
   DEPER  =   0.30     relativ break condition  

   TIME   =   0.40     timestep for ELM

  volume/ion in A,a.u.               =     500.00      3374.17
  Fermi-wavevector in a.u.,A,eV,Ry     =   0.286027  0.540514  1.113116  0.081812
  Thomas-Fermi vector in A             =   1.140401
 
 Write flags
   LWAVE        =      F    write WAVECAR
   LDOWNSAMPLE  =      F    k-point downsampling of WAVECAR
   LCHARG       =      F    write CHGCAR
   LVTOT        =      F    write LOCPOT, total local potential
   LVHAR        =      F    write LOCPOT, Hartree potential only
   LELF         =      F    write electronic localiz. function (ELF)
   LORBIT       =      0    0 simple, 1 ext, 2 COOP (PROOUT), +10 PAW based schemes


 Dipole corrections
   LMONO  =      F    monopole corrections only (constant potential shift)
   LDIPOL =      F    correct potential (dipole corrections)
   IDIPOL =      0    1-x, 2-y, 3-z, 4-all directions 
   EPSILON=  1.0000000 bulk dielectric constant

 Exchange correlation treatment:
   GGA     =    --    GGA type
   LEXCH   =     8    internal setting for exchange type
   VOSKOWN=      0    Vosko Wilk Nusair interpolation
   LHFCALC =     F    Hartree Fock is set to
   LHFONE  =     F    Hartree Fock one center treatment
   AEXX    =    0.0000 exact exchange contribution

 Linear response parameters
   LEPSILON=     F    determine dielectric tensor
   LRPA    =     F    only Hartree local field effects (RPA)
   LNABLA  =     F    use nabla operator in PAW spheres
   LVEL    =     F    velocity operator in full k-point grid
   LINTERFAST=   F  fast interpolation
   KINTER  =     0    interpolate to denser k-point grid
   CSHIFT  =0.1000    complex shift for real part using Kramers Kronig
   OMEGAMAX=  -1.0    maximum frequency
   DEG_THRESHOLD= 0.2000000E-02 threshold for treating states as degnerate
   RTIME   =   -0.100 relaxation time in fs
  (WPLASMAI=    0.000 imaginary part of plasma frequency in eV, 0.658/RTIME)
   DFIELD  = 0.0000000 0.0000000 0.0000000 field for delta impulse in time
 
 Orbital magnetization related:
   ORBITALMAG=     F  switch on orbital magnetization
   LCHIMAG   =     F  perturbation theory with respect to B field
   DQ        =  0.001000  dq finite difference perturbation B field
   LLRAUG    =     F  two centre corrections for induced B field



--------------------------------------------------------------------------------------------------------


 Static calculation
 charge density and potential will be updated during run
 non-spin polarized calculation
 RMM-DIIS sequential band-by-band and
  variant of blocked Davidson during initial phase
 perform sub-space diagonalisation
    before iterative eigenvector-optimisation
 modified Broyden-mixing scheme, WC =      100.0
 initial mixing is a Kerker type mixing with AMIX =  0.4000 and BMIX =      1.0000
 Hartree-type preconditioning will be used
 using additional bands            4
 reciprocal scheme for non local part
 use partial core corrections
 calculate Harris-corrections to forces 
   (improved forces if not selfconsistent)
 use gradient corrections 
 use of overlap-Matrix (Vanderbilt PP)
 Gauss-broadening in eV      SIGMA  =   0.05


--------------------------------------------------------------------------------------------------------


  energy-cutoff  :     1500.00
  volume of cell :     3000.00
      direct lattice vectors                 reciprocal lattice vectors
    30.000000000  0.000000000  0.000000000     0.033333333  0.000000000  0.000000000
     0.000000000 10.000000000  0.000000000     0.000000000  0.100000000  0.000000000
     0.000000000  0.000000000 10.000000000     0.000000000  0.000000000  0.100000000

  length of vectors
    30.000000000 10.000000000 10.000000000     0.033333333  0.100000000  0.100000000


 
 k-points in units of 2pi/SCALE and weight: read from INCAR                         
   0.00000000  0.02500000  0.02500000       0.500
   0.00000000 -0.02500000  0.02500000       0.500
 
 k-points in reciprocal lattice and weights: read from INCAR                         
   0.00000000  0.25000000  0.25000000       0.500
   0.00000000 -0.25000000  0.25000000       0.500
 
 position of ions in fractional coordinates (direct lattice) 
   0.18853563  0.15710957  0.17600000
   0.95513104  0.15710957  0.17600000
   0.19921080  0.25541218  0.17439231
   0.15513922  0.16672783  0.17649328
   0.94612303  0.09941802  0.25610440
   0.94624850  0.09907990  0.09607226
 
 position of ions in cartesian coordinates  (Angst):
   5.65606885  1.57109570  1.76000001
  28.65393115  1.57109570  1.76000001
   5.97632402  2.55412181  1.74392306
   4.65417663  1.66727831  1.76493284
  28.38369087  0.99418024  2.56104402
  28.38745495  0.99079897  0.96072265
 


--------------------------------------------------------------------------------------------------------


 k-point  1 :   0.0000 0.2500 0.2500  plane waves:  395853
 k-point  2 :   0.0000-0.2500 0.2500  plane waves:  395853

 maximum and minimum number of plane-waves per node :     24838    24619

 maximum number of plane-waves:    395853
 maximum index in each direction: 
   IXMAX=   94   IYMAX=   31   IZMAX=   31
   IXMIN=  -94   IYMIN=  -31   IZMIN=  -31


 parallel 3D FFT for wavefunctions:
    minimum data exchange during FFTs selected (reduces bandwidth)
 parallel 3D FFT for charge:
    minimum data exchange during FFTs selected (reduces bandwidth)


 total amount of memory used by VASP MPI-rank0   207433. kBytes
=======================================================================

   base      :      30000. kBytes
   nonl-proj :       8719. kBytes
   fftplans  :      62778. kBytes
   grid      :     101176. kBytes
   one-center:          3. kBytes
   wavefun   :       4757. kBytes
 
     INWAV:  cpu time    0.0000: real time    0.0018
 Broyden mixing: mesh for mixing (old mesh)
   NGX =189   NGY = 63   NGZ = 63
  (NGX  =768   NGY  =252   NGZ  =252)
  gives a total of 750141 points

 initial charge density was supplied:
 charge density of overlapping atoms calculated
 number of electron      16.0000000 magnetization 
 keeping initial charge density in first step


--------------------------------------------------------------------------------------------------------


 Maximum index for augmentation-charges          691 (set IRDMAX)


--------------------------------------------------------------------------------------------------------


 First call to EWALD:  gamma=   0.123
 Maximum number of real-space cells 2x 4x 4
 Maximum number of reciprocal cells 5x 2x 2

    FEWALD:  cpu time    0.0014: real time    0.0014


--------------------------------------- Iteration      1(   1)  ---------------------------------------


    POTLOK:  cpu time    2.6615: real time    2.7256
    SETDIJ:  cpu time    0.0060: real time    0.0060
     EDDAV:  cpu time    3.2194: real time    3.2628
       DOS:  cpu time    0.0002: real time    0.0002
    --------------------------------------------
      LOOP:  cpu time    5.8871: real time    5.9946

 eigenvalue-minimisations  :    64
 total energy-change (2. order) : 0.1520415E+03  (-0.4731270E+03)
 number of electron      16.0000000 magnetization 
 augmentation part       16.0000000 magnetization 

 Free energy of the ion-electron system (eV)
  ---------------------------------------------------
  alpha Z        PSCENC =         0.21758540
  Ewald energy   TEWEN  =       271.45142057
  -Hartree energ DENC   =      -997.39709161
  -exchange      EXHF   =         0.00000000
  -V(xc)+E(xc)   XCENC  =        60.59473784
  PAW double counting   =       697.41634940     -699.85762974
  entropy T*S    EENTRO =        -0.00000301
  eigenvalues    EBANDS =       -95.08751450
  atomic energy  EATOM  =       914.70366869
  Solvation  Ediel_sol  =         0.00000000
  ---------------------------------------------------
  free energy    TOTEN  =       152.04152305 eV

  energy without entropy =      152.04152605  energy(sigma->0) =      152.04152455


--------------------------------------------------------------------------------------------------------




--------------------------------------- Iteration      1(   2)  ---------------------------------------


     EDDAV:  cpu time    4.3966: real time    4.4627
       DOS:  cpu time    0.0001: real time    0.0001
    --------------------------------------------
      LOOP:  cpu time    4.3967: real time    4.4629

 eigenvalue-minimisations  :    96
 total energy-change (2. order) :-0.9787073E+02  (-0.9669325E+02)
 number of electron      16.0000000 magnetization 
 augmentation part       16.0000000 magnetization 

 Free energy of the ion-electron system (eV)
  ---------------------------------------------------
  alpha Z        PSCENC =         0.21758540
  Ewald energy   TEWEN  =       271.45142057
  -Hartree energ DENC   =      -997.39709161
  -exchange      EXHF   =         0.00000000
  -V(xc)+E(xc)   XCENC  =        60.59473784
  PAW double counting   =       697.41634940     -699.85762974
  entropy T*S    EENTRO =        -0.00000000
  eigenvalues    EBANDS =      -192.95825211
  atomic energy  EATOM  =       914.70366869
  Solvation  Ediel_sol  =         0.00000000
  ---------------------------------------------------
  free energy    TOTEN  =        54.17078845 eV

  energy without entropy =       54.17078845  energy(sigma->0) =       54.17078845


--------------------------------------------------------------------------------------------------------




--------------------------------------- Iteration      1(   3)  ---------------------------------------


     EDDAV:  cpu time    4.1245: real time    4.1373
       DOS:  cpu time    0.0001: real time    0.0001
    --------------------------------------------
      LOOP:  cpu time    4.1247: real time    4.1374

 eigenvalue-minimisations  :    88
 total energy-change (2. order) :-0.7366942E+02  (-0.7192641E+02)
 number of electron      16.0000000 magnetization 
 augmentation part       16.0000000 magnetization 

 Free energy of the ion-electron system (eV)
  ---------------------------------------------------
  alpha Z        PSCENC =         0.21758540
  Ewald energy   TEWEN  =       271.45142057
  -Hartree energ DENC   =      -997.39709161
  -exchange      EXHF   =         0.00000000
  -V(xc)+E(xc)   XCENC  =        60.59473784
  PAW double counting   =       697.41634940     -699.85762974
  entropy T*S    EENTRO =        -0.00000000
  eigenvalues    EBANDS =      -266.62767219
  atomic energy  EATOM  =       914.70366869
  Solvation  Ediel_sol  =         0.00000000
  ---------------------------------------------------
  free energy    TOTEN  =       -19.49863164 eV

  energy without entropy =      -19.49863164  energy(sigma->0) =      -19.49863164


--------------------------------------------------------------------------------------------------------




--------------------------------------- Iteration      1(   4)  ---------------------------------------


     EDDAV:  cpu time    3.0880: real time    3.0970
       DOS:  cpu time    0.0001: real time    0.0001
    --------------------------------------------
      LOOP:  cpu time    3.0881: real time    3.0971

 eigenvalue-minimisations  :    60
 total energy-change (2. order) :-0.1211350E+02  (-0.1209862E+02)
 number of electron      16.0000000 magnetization 
 augmentation part       16.0000000 magnetization 

 Free energy of the ion-electron system (eV)
  ---------------------------------------------------
  alpha Z        PSCENC =         0.21758540
  Ewald energy   TEWEN  =       271.45142057
  -Hartree energ DENC   =      -997.39709161
  -exchange      EXHF   =         0.00000000
  -V(xc)+E(xc)   XCENC  =        60.59473784
  PAW double counting   =       697.41634940     -699.85762974
  entropy T*S    EENTRO =        -0.00000000
  eigenvalues    EBANDS =      -278.74117605
  atomic energy  EATOM  =       914.70366869
  Solvation  Ediel_sol  =         0.00000000
  ---------------------------------------------------
  free energy    TOTEN  =       -31.61213550 eV

  energy without entropy =      -31.61213550  energy(sigma->0) =      -31.61213550


--------------------------------------------------------------------------------------------------------




--------------------------------------- Iteration      1(   5)  ---------------------------------------


     EDDAV:  cpu time    3.2329: real time    3.2428
       DOS:  cpu time    0.0004: real time    0.0004
    CHARGE:  cpu time    0.4723: real time    0.4738
    MIXING:  cpu time    0.0565: real time    0.0568
    --------------------------------------------
      LOOP:  cpu time    3.7621: real time    3.7738

 eigenvalue-minimisations  :    64
 total energy-change (2. order) :-0.3679989E+00  (-0.3675643E+00)
 number of electron      16.0000000 magnetization 
 augmentation part        0.2015239 magnetization 

 Broyden mixing:
  rms(total) = 0.18109E+01    rms(broyden)= 0.18109E+01
  rms(prec ) = 0.18394E+01
  weight for this iteration     100.00

 Free energy of the ion-electron system (eV)
  ---------------------------------------------------
  alpha Z        PSCENC =         0.21758540
  Ewald energy   TEWEN  =       271.45142057
  -Hartree energ DENC   =      -997.39709161
  -exchange      EXHF   =         0.00000000
  -V(xc)+E(xc)   XCENC  =        60.59473784
  PAW double counting   =       697.41634940     -699.85762974
  entropy T*S    EENTRO =        -0.00000000
  eigenvalues    EBANDS =      -279.10917496
  atomic energy  EATOM  =       914.70366869
  Solvation  Ediel_sol  =         0.00000000
  ---------------------------------------------------
  free energy    TOTEN  =       -31.98013441 eV

  energy without entropy =      -31.98013441  energy(sigma->0) =      -31.98013441


--------------------------------------------------------------------------------------------------------




--------------------------------------- Iteration      1(   6)  ---------------------------------------


    POTLOK:  cpu time    2.7284: real time    2.7365
    SETDIJ:  cpu time    0.0070: real time    0.0070
    EDDIAG:  cpu time    0.6638: real time    0.6658
  RMM-DIIS:  cpu time    3.6611: real time    3.6906
    ORTHCH:  cpu time    0.0190: real time    0.0190
       DOS:  cpu time    0.0003: real time    0.0003
    CHARGE:  cpu time    0.4666: real time    0.4683
    MIXING:  cpu time    0.0612: real time    0.0613
    --------------------------------------------
      LOOP:  cpu time    7.6073: real time    7.6488

 eigenvalue-minimisations  :    64
 total energy-change (2. order) : 0.3373860E+01  (-0.1213370E+01)
 number of electron      16.0000000 magnetization 
 augmentation part        0.1276724 magnetization 

 Broyden mixing:
  rms(total) = 0.17848E+01    rms(broyden)= 0.17848E+01
  rms(prec ) = 0.17879E+01
  weight for this iteration     100.00

 eigenvalues of (default mixing * dielectric matrix)
  average eigenvalue GAMMA=   0.5011
  0.5011

 Free energy of the ion-electron system (eV)
  ---------------------------------------------------
  alpha Z        PSCENC =         0.21758540
  Ewald energy   TEWEN  =       271.45142057
  -Hartree energ DENC   =     -1042.31641079
  -exchange      EXHF   =         0.00000000
  -V(xc)+E(xc)   XCENC  =        63.02307959
  PAW double counting   =      1512.75627920    -1515.78301206
  entropy T*S    EENTRO =        -0.00000000
  eigenvalues    EBANDS =      -232.65888489
  atomic energy  EATOM  =       914.70366869
  Solvation  Ediel_sol  =         0.00000000
  ---------------------------------------------------
  free energy    TOTEN  =       -28.60627428 eV

  energy without entropy =      -28.60627428  energy(sigma->0) =      -28.60627428


--------------------------------------------------------------------------------------------------------




--------------------------------------- Iteration      1(   7)  ---------------------------------------


    POTLOK:  cpu time    2.7564: real time    2.7784
    SETDIJ:  cpu time    0.0027: real time    0.0027
    EDDIAG:  cpu time    0.6236: real time    0.6670
  RMM-DIIS:  cpu time    4.0496: real time    4.3009
    ORTHCH:  cpu time    0.0345: real time    0.0368
       DOS:  cpu time    0.0003: real time    0.0003
    CHARGE:  cpu time    0.4206: real time    0.4479
    MIXING:  cpu time    0.0609: real time    0.0636
    --------------------------------------------
      LOOP:  cpu time    7.9486: real time    8.2977

 eigenvalue-minimisations  :    76
 total energy-change (2. order) : 0.5436449E-01  (-0.1264032E+00)
 number of electron      16.0000000 magnetization 
 augmentation part        0.1060985 magnetization 

 Broyden mixing:
  rms(total) = 0.15756E+01    rms(broyden)= 0.15756E+01
  rms(prec ) = 0.15775E+01
  weight for this iteration     100.00

 eigenvalues of (default mixing * dielectric matrix)
  average eigenvalue GAMMA=   1.9123
  1.9123  1.9123

 Free energy of the ion-electron system (eV)
  ---------------------------------------------------
  alpha Z        PSCENC =         0.21758540
  Ewald energy   TEWEN  =       271.45142057
  -Hartree energ DENC   =     -1048.09550677
  -exchange      EXHF   =         0.00000000
  -V(xc)+E(xc)   XCENC  =        63.33802716
  PAW double counting   =      2220.24158951    -2223.27275248
  entropy T*S    EENTRO =        -0.00000000
  eigenvalues    EBANDS =      -227.13594187
  atomic energy  EATOM  =       914.70366869
  Solvation  Ediel_sol  =         0.00000000
  ---------------------------------------------------
  free energy    TOTEN  =       -28.55190979 eV

  energy without entropy =      -28.55190979  energy(sigma->0) =      -28.55190979


--------------------------------------------------------------------------------------------------------




--------------------------------------- Iteration      1(   8)  ---------------------------------------


    POTLOK:  cpu time    2.6657: real time    2.7302
    SETDIJ:  cpu time    0.0068: real time    0.0068
    EDDIAG:  cpu time    0.6705: real time    0.6720
  RMM-DIIS:  cpu time    3.6248: real time    3.6430
    ORTHCH:  cpu time    0.0190: real time    0.0190
       DOS:  cpu time    0.0003: real time    0.0003
    CHARGE:  cpu time    0.4560: real time    0.4667
    MIXING:  cpu time    0.1224: real time    0.1289
    --------------------------------------------
      LOOP:  cpu time    7.5655: real time    7.6669

 eigenvalue-minimisations  :    64
 total energy-change (2. order) :-0.9824277E+00  (-0.7530659E+00)
 number of electron      16.0000000 magnetization 
 augmentation part        0.1600160 magnetization 

 Broyden mixing:
  rms(total) = 0.11937E+01    rms(broyden)= 0.11937E+01
  rms(prec ) = 0.12065E+01
  weight for this iteration     100.00

 eigenvalues of (default mixing * dielectric matrix)
  average eigenvalue GAMMA=   1.4182
  2.3014  0.9766  0.9766

 Free energy of the ion-electron system (eV)
  ---------------------------------------------------
  alpha Z        PSCENC =         0.21758540
  Ewald energy   TEWEN  =       271.45142057
  -Hartree energ DENC   =     -1032.26681476
  -exchange      EXHF   =         0.00000000
  -V(xc)+E(xc)   XCENC  =        62.49441739
  PAW double counting   =      6652.48913012    -6654.97972146
  entropy T*S    EENTRO =        -0.00000000
  eigenvalues    EBANDS =      -243.64402346
  atomic energy  EATOM  =       914.70366869
  Solvation  Ediel_sol  =         0.00000000
  ---------------------------------------------------
  free energy    TOTEN  =       -29.53433751 eV

  energy without entropy =      -29.53433751  energy(sigma->0) =      -29.53433751


--------------------------------------------------------------------------------------------------------




--------------------------------------- Iteration      1(   9)  ---------------------------------------


    POTLOK:  cpu time    2.6871: real time    2.7309
    SETDIJ:  cpu time    0.0067: real time    0.0067
    EDDIAG:  cpu time    0.6605: real time    0.6714
  RMM-DIIS:  cpu time    3.6126: real time    3.6279
    ORTHCH:  cpu time    0.0189: real time    0.0189
       DOS:  cpu time    0.0003: real time    0.0003
    CHARGE:  cpu time    0.4664: real time    0.4673
    MIXING:  cpu time    0.0636: real time    0.0641
    --------------------------------------------
      LOOP:  cpu time    7.5162: real time    7.5874

 eigenvalue-minimisations  :    64
 total energy-change (2. order) : 0.1222380E+01  (-0.3032648E+00)
 number of electron      16.0000000 magnetization 
 augmentation part        0.1265203 magnetization 

 Broyden mixing:
  rms(total) = 0.40063E+00    rms(broyden)= 0.40063E+00
  rms(prec ) = 0.40272E+00
  weight for this iteration     100.00

 eigenvalues of (default mixing * dielectric matrix)
  average eigenvalue GAMMA=   1.1026
  2.1478  0.8120  0.8120  0.6385

 Free energy of the ion-electron system (eV)
  ---------------------------------------------------
  alpha Z        PSCENC =         0.21758540
  Ewald energy   TEWEN  =       271.45142057
  -Hartree energ DENC   =     -1055.60898003
  -exchange      EXHF   =         0.00000000
  -V(xc)+E(xc)   XCENC  =        63.76592742
  PAW double counting   =      5753.88934406    -5756.74821677
  entropy T*S    EENTRO =        -0.00000000
  eigenvalues    EBANDS =      -219.98270731
  atomic energy  EATOM  =       914.70366869
  Solvation  Ediel_sol  =         0.00000000
  ---------------------------------------------------
  free energy    TOTEN  =       -28.31195796 eV

  energy without entropy =      -28.31195796  energy(sigma->0) =      -28.31195796


--------------------------------------------------------------------------------------------------------




--------------------------------------- Iteration      1(  10)  ---------------------------------------


    POTLOK:  cpu time    2.7471: real time    2.7578
    SETDIJ:  cpu time    0.0062: real time    0.0062
    EDDIAG:  cpu time    0.6713: real time    0.6738
  RMM-DIIS:  cpu time    4.2998: real time    4.3177
    ORTHCH:  cpu time    0.0195: real time    0.0195
       DOS:  cpu time    0.0002: real time    0.0002
    CHARGE:  cpu time    0.4643: real time    0.4657
    MIXING:  cpu time    0.0676: real time    0.0676
    --------------------------------------------
      LOOP:  cpu time    8.2759: real time    8.3085

 eigenvalue-minimisations  :    76
 total energy-change (2. order) :-0.1720962E-01  (-0.1925445E-01)
 number of electron      16.0000000 magnetization 
 augmentation part        0.1174225 magnetization 

 Broyden mixing:
  rms(total) = 0.19699E+00    rms(broyden)= 0.19699E+00
  rms(prec ) = 0.19876E+00
  weight for this iteration     100.00

 eigenvalues of (default mixing * dielectric matrix)
  average eigenvalue GAMMA=   1.2675
  1.9003  1.5051  1.1459  0.8930  0.8930

 Free energy of the ion-electron system (eV)
  ---------------------------------------------------
  alpha Z        PSCENC =         0.21758540
  Ewald energy   TEWEN  =       271.45142057
  -Hartree energ DENC   =     -1055.80716912
  -exchange      EXHF   =         0.00000000
  -V(xc)+E(xc)   XCENC  =        63.76835344
  PAW double counting   =      5491.19353307    -5494.05713985
  entropy T*S    EENTRO =        -0.00000000
  eigenvalues    EBANDS =      -219.79941979
  atomic energy  EATOM  =       914.70366869
  Solvation  Ediel_sol  =         0.00000000
  ---------------------------------------------------
  free energy    TOTEN  =       -28.32916759 eV

  energy without entropy =      -28.32916759  energy(sigma->0) =      -28.32916759


--------------------------------------------------------------------------------------------------------




--------------------------------------- Iteration      1(  11)  ---------------------------------------


    POTLOK:  cpu time    2.7368: real time    2.7551
    SETDIJ:  cpu time    0.0063: real time    0.0063
    EDDIAG:  cpu time    0.6629: real time    0.6660
  RMM-DIIS:  cpu time    4.0174: real time    4.0346
    ORTHCH:  cpu time    0.0209: real time    0.0209
       DOS:  cpu time    0.0002: real time    0.0002
    CHARGE:  cpu time    0.4638: real time    0.4650
    MIXING:  cpu time    0.0726: real time    0.0726
    --------------------------------------------
      LOOP:  cpu time    7.9808: real time    8.0207

 eigenvalue-minimisations  :    72
 total energy-change (2. order) : 0.1306903E-02  (-0.1120044E-02)
 number of electron      16.0000000 magnetization 
 augmentation part        0.1160957 magnetization 

 Broyden mixing:
  rms(total) = 0.10596E+00    rms(broyden)= 0.10596E+00
  rms(prec ) = 0.10782E+00
  weight for this iteration     100.00

 eigenvalues of (default mixing * dielectric matrix)
  average eigenvalue GAMMA=   1.4840
  2.6351  2.6351  0.9830  0.9830  0.8339  0.8339

 Free energy of the ion-electron system (eV)
  ---------------------------------------------------
  alpha Z        PSCENC =         0.21758540
  Ewald energy   TEWEN  =       271.45142057
  -Hartree energ DENC   =     -1057.53895409
  -exchange      EXHF   =         0.00000000
  -V(xc)+E(xc)   XCENC  =        63.83710353
  PAW double counting   =      5220.59060583    -5223.45533677
  entropy T*S    EENTRO =        -0.00000000
  eigenvalues    EBANDS =      -218.13395384
  atomic energy  EATOM  =       914.70366869
  Solvation  Ediel_sol  =         0.00000000
  ---------------------------------------------------
  free energy    TOTEN  =       -28.32786068 eV

  energy without entropy =      -28.32786068  energy(sigma->0) =      -28.32786068


--------------------------------------------------------------------------------------------------------




--------------------------------------- Iteration      1(  12)  ---------------------------------------


    POTLOK:  cpu time    2.7305: real time    2.7431
    SETDIJ:  cpu time    0.0073: real time    0.0073
    EDDIAG:  cpu time    0.6663: real time    0.6692
  RMM-DIIS:  cpu time    3.6060: real time    3.6169
    ORTHCH:  cpu time    0.0196: real time    0.0196
       DOS:  cpu time    0.0002: real time    0.0002
    CHARGE:  cpu time    0.4650: real time    0.4665
    MIXING:  cpu time    0.0664: real time    0.0664
    --------------------------------------------
      LOOP:  cpu time    7.5612: real time    7.5893

 eigenvalue-minimisations  :    64
 total energy-change (2. order) : 0.1933678E-02  (-0.7848074E-02)
 number of electron      16.0000000 magnetization 
 augmentation part        0.1108146 magnetization 

 Broyden mixing:
  rms(total) = 0.52928E-01    rms(broyden)= 0.52928E-01
  rms(prec ) = 0.53732E-01
  weight for this iteration     100.00

 eigenvalues of (default mixing * dielectric matrix)
  average eigenvalue GAMMA=   1.3997
  2.6623  2.6623  0.8218  0.8218  1.0102  1.0102  0.8092

 Free energy of the ion-electron system (eV)
  ---------------------------------------------------
  alpha Z        PSCENC =         0.21758540
  Ewald energy   TEWEN  =       271.45142057
  -Hartree energ DENC   =     -1061.35935205
  -exchange      EXHF   =         0.00000000
  -V(xc)+E(xc)   XCENC  =        64.01773441
  PAW double counting   =      4937.32902097    -4940.22825590
  entropy T*S    EENTRO =        -0.00000000
  eigenvalues    EBANDS =      -214.45774910
  atomic energy  EATOM  =       914.70366869
  Solvation  Ediel_sol  =         0.00000000
  ---------------------------------------------------
  free energy    TOTEN  =       -28.32592701 eV

  energy without entropy =      -28.32592701  energy(sigma->0) =      -28.32592701


--------------------------------------------------------------------------------------------------------




--------------------------------------- Iteration      1(  13)  ---------------------------------------


    POTLOK:  cpu time    2.7322: real time    2.7388
    SETDIJ:  cpu time    0.0048: real time    0.0048
    EDDIAG:  cpu time    0.6666: real time    0.6673
  RMM-DIIS:  cpu time    4.0331: real time    4.0616
    ORTHCH:  cpu time    0.0185: real time    0.0186
       DOS:  cpu time    0.0003: real time    0.0003
    CHARGE:  cpu time    0.4652: real time    0.4667
    MIXING:  cpu time    0.0702: real time    0.0702
    --------------------------------------------
      LOOP:  cpu time    7.9910: real time    8.0283

 eigenvalue-minimisations  :    72
 total energy-change (2. order) :-0.2846399E-02  (-0.5138698E-03)
 number of electron      16.0000000 magnetization 
 augmentation part        0.1099810 magnetization 

 Broyden mixing:
  rms(total) = 0.52390E-01    rms(broyden)= 0.52390E-01
  rms(prec ) = 0.53138E-01
  weight for this iteration     100.00

 eigenvalues of (default mixing * dielectric matrix)
  average eigenvalue GAMMA=   1.6946
  4.2671  2.7286  1.9814  0.8561  0.8561  1.1873  0.8948  0.7854

 Free energy of the ion-electron system (eV)
  ---------------------------------------------------
  alpha Z        PSCENC =         0.21758540
  Ewald energy   TEWEN  =       271.45142057
  -Hartree energ DENC   =     -1061.28458713
  -exchange      EXHF   =         0.00000000
  -V(xc)+E(xc)   XCENC  =        64.00695441
  PAW double counting   =      4975.18705462    -4978.08175360
  entropy T*S    EENTRO =        -0.00000000
  eigenvalues    EBANDS =      -214.52911636
  atomic energy  EATOM  =       914.70366869
  Solvation  Ediel_sol  =         0.00000000
  ---------------------------------------------------
  free energy    TOTEN  =       -28.32877341 eV

  energy without entropy =      -28.32877341  energy(sigma->0) =      -28.32877341


--------------------------------------------------------------------------------------------------------




--------------------------------------- Iteration      1(  14)  ---------------------------------------


    POTLOK:  cpu time    2.7237: real time    2.7314
    SETDIJ:  cpu time    0.0145: real time    0.0145
    EDDIAG:  cpu time    0.6666: real time    0.6673
  RMM-DIIS:  cpu time    3.6105: real time    3.6193
    ORTHCH:  cpu time    0.0205: real time    0.0207
       DOS:  cpu time    0.0003: real time    0.0003
    CHARGE:  cpu time    0.4661: real time    0.4674
    MIXING:  cpu time    0.0732: real time    0.0732
    --------------------------------------------
      LOOP:  cpu time    7.5755: real time    7.5941

 eigenvalue-minimisations  :    64
 total energy-change (2. order) :-0.1012790E-01  (-0.9400406E-03)
 number of electron      16.0000000 magnetization 
 augmentation part        0.1083409 magnetization 

 Broyden mixing:
  rms(total) = 0.62627E-01    rms(broyden)= 0.62627E-01
  rms(prec ) = 0.63460E-01
  weight for this iteration     100.00

 eigenvalues of (default mixing * dielectric matrix)
  average eigenvalue GAMMA=   1.6372
  4.3904  2.5146  2.5146  0.8394  0.8394  1.0226  1.0226  0.7958  0.7958

 Free energy of the ion-electron system (eV)
  ---------------------------------------------------
  alpha Z        PSCENC =         0.21758540
  Ewald energy   TEWEN  =       271.45142057
  -Hartree energ DENC   =     -1062.56349312
  -exchange      EXHF   =         0.00000000
  -V(xc)+E(xc)   XCENC  =        64.04900676
  PAW double counting   =      5002.40186146    -5005.30444700
  entropy T*S    EENTRO =        -0.00000000
  eigenvalues    EBANDS =      -213.29450407
  atomic energy  EATOM  =       914.70366869
  Solvation  Ediel_sol  =         0.00000000
  ---------------------------------------------------
  free energy    TOTEN  =       -28.33890131 eV

  energy without entropy =      -28.33890131  energy(sigma->0) =      -28.33890131


--------------------------------------------------------------------------------------------------------




--------------------------------------- Iteration      1(  15)  ---------------------------------------


    POTLOK:  cpu time    2.7110: real time    2.7213
    SETDIJ:  cpu time    0.0076: real time    0.0076
    EDDIAG:  cpu time    0.6681: real time    0.6700
  RMM-DIIS:  cpu time    3.7298: real time    3.7687
    ORTHCH:  cpu time    0.0192: real time    0.0205
       DOS:  cpu time    0.0003: real time    0.0003
    CHARGE:  cpu time    0.4427: real time    0.4679
    MIXING:  cpu time    0.0730: real time    0.0767
    --------------------------------------------
      LOOP:  cpu time    7.6518: real time    7.7329

 eigenvalue-minimisations  :    66
 total energy-change (2. order) : 0.4864797E-04  (-0.2353406E-03)
 number of electron      16.0000000 magnetization 
 augmentation part        0.1091775 magnetization 

 Broyden mixing:
  rms(total) = 0.26371E-01    rms(broyden)= 0.26371E-01
  rms(prec ) = 0.27431E-01
  weight for this iteration     100.00

 eigenvalues of (default mixing * dielectric matrix)
  average eigenvalue GAMMA=   1.5851
  4.4054  2.5647  2.5647  1.1615  1.1615  0.8487  0.8487  0.8646  0.7155  0.7155

 Free energy of the ion-electron system (eV)
  ---------------------------------------------------
  alpha Z        PSCENC =         0.21758540
  Ewald energy   TEWEN  =       271.45142057
  -Hartree energ DENC   =     -1062.05389477
  -exchange      EXHF   =         0.00000000
  -V(xc)+E(xc)   XCENC  =        64.01701524
  PAW double counting   =      5070.44942451    -5073.34257042
  entropy T*S    EENTRO =        -0.00000000
  eigenvalues    EBANDS =      -213.78150188
  atomic energy  EATOM  =       914.70366869
  Solvation  Ediel_sol  =         0.00000000
  ---------------------------------------------------
  free energy    TOTEN  =       -28.33885266 eV

  energy without entropy =      -28.33885266  energy(sigma->0) =      -28.33885266


--------------------------------------------------------------------------------------------------------




--------------------------------------- Iteration      1(  16)  ---------------------------------------


    POTLOK:  cpu time    2.5542: real time    2.6973
    SETDIJ:  cpu time    0.0103: real time    0.0107
    EDDIAG:  cpu time    0.6588: real time    0.6696
  RMM-DIIS:  cpu time    3.6982: real time    3.7314
    ORTHCH:  cpu time    0.0185: real time    0.0188
       DOS:  cpu time    0.0002: real time    0.0002
    CHARGE:  cpu time    0.4654: real time    0.4705
    MIXING:  cpu time    0.0777: real time    0.0785
    --------------------------------------------
      LOOP:  cpu time    7.4834: real time    7.6770

 eigenvalue-minimisations  :    64
 total energy-change (2. order) :-0.1306087E-02  (-0.7721794E-03)
 number of electron      16.0000000 magnetization 
 augmentation part        0.1107872 magnetization 

 Broyden mixing:
  rms(total) = 0.13831E-01    rms(broyden)= 0.13831E-01
  rms(prec ) = 0.14902E-01
  weight for this iteration     100.00

 eigenvalues of (default mixing * dielectric matrix)
  average eigenvalue GAMMA=   1.6694
  4.6255  2.6316  2.6316  1.7368  1.7368  0.8520  0.8520  0.9270  0.9270  0.7747
  0.6689

 Free energy of the ion-electron system (eV)
  ---------------------------------------------------
  alpha Z        PSCENC =         0.21758540
  Ewald energy   TEWEN  =       271.45142057
  -Hartree energ DENC   =     -1061.26246344
  -exchange      EXHF   =         0.00000000
  -V(xc)+E(xc)   XCENC  =        63.96906431
  PAW double counting   =      5097.23688595    -5100.11842085
  entropy T*S    EENTRO =        -0.00000000
  eigenvalues    EBANDS =      -214.53789937
  atomic energy  EATOM  =       914.70366869
  Solvation  Ediel_sol  =         0.00000000
  ---------------------------------------------------
  free energy    TOTEN  =       -28.34015875 eV

  energy without entropy =      -28.34015875  energy(sigma->0) =      -28.34015875


--------------------------------------------------------------------------------------------------------




--------------------------------------- Iteration      1(  17)  ---------------------------------------


    POTLOK:  cpu time    2.5896: real time    2.6936
    SETDIJ:  cpu time    0.0034: real time    0.0034
    EDDIAG:  cpu time    0.6253: real time    0.6648
  RMM-DIIS:  cpu time    3.8449: real time    3.9322
    ORTHCH:  cpu time    0.0186: real time    0.0186
       DOS:  cpu time    0.0002: real time    0.0002
    CHARGE:  cpu time    0.4659: real time    0.4682
    MIXING:  cpu time    0.0836: real time    0.0837
    --------------------------------------------
      LOOP:  cpu time    7.6316: real time    7.8648

 eigenvalue-minimisations  :    70
 total energy-change (2. order) :-0.2850484E-02  (-0.8023972E-03)
 number of electron      16.0000000 magnetization 
 augmentation part        0.1125677 magnetization 

 Broyden mixing:
  rms(total) = 0.43696E-01    rms(broyden)= 0.43696E-01
  rms(prec ) = 0.44424E-01
  weight for this iteration     100.00

 eigenvalues of (default mixing * dielectric matrix)
  average eigenvalue GAMMA=   1.6675
  5.0555  3.0676  2.7605  1.6731  1.6731  0.8489  0.8489  0.9301  0.8518  0.8518
  0.7243  0.7243

 Free energy of the ion-electron system (eV)
  ---------------------------------------------------
  alpha Z        PSCENC =         0.21758540
  Ewald energy   TEWEN  =       271.45142057
  -Hartree energ DENC   =     -1060.57181653
  -exchange      EXHF   =         0.00000000
  -V(xc)+E(xc)   XCENC  =        63.92499355
  PAW double counting   =      5101.57551469    -5104.44731284
  entropy T*S    EENTRO =        -0.00000000
  eigenvalues    EBANDS =      -215.19706276
  atomic energy  EATOM  =       914.70366869
  Solvation  Ediel_sol  =         0.00000000
  ---------------------------------------------------
  free energy    TOTEN  =       -28.34300923 eV

  energy without entropy =      -28.34300923  energy(sigma->0) =      -28.34300923


--------------------------------------------------------------------------------------------------------




--------------------------------------- Iteration      1(  18)  ---------------------------------------


    POTLOK:  cpu time    2.7045: real time    2.7109
    SETDIJ:  cpu time    0.0038: real time    0.0038
    EDDIAG:  cpu time    0.6694: real time    0.6705
  RMM-DIIS:  cpu time    3.6816: real time    3.6886
    ORTHCH:  cpu time    0.0177: real time    0.0177
       DOS:  cpu time    0.0003: real time    0.0003
    CHARGE:  cpu time    0.4671: real time    0.4674
    MIXING:  cpu time    0.0988: real time    0.0989
    --------------------------------------------
      LOOP:  cpu time    7.6432: real time    7.6581

 eigenvalue-minimisations  :    64
 total energy-change (2. order) : 0.2910366E-04  (-0.2069773E-04)
 number of electron      16.0000000 magnetization 
 augmentation part        0.1125895 magnetization 

 Broyden mixing:
  rms(total) = 0.44768E-01    rms(broyden)= 0.44768E-01
  rms(prec ) = 0.45437E-01
  weight for this iteration     100.00

 eigenvalues of (default mixing * dielectric matrix)
  average eigenvalue GAMMA=   1.7197
  5.2699  3.8965  2.8339  2.0083  0.8575  0.8575  1.1217  1.1217  1.2119  0.8617
  0.8617  0.7843  0.6700

 Free energy of the ion-electron system (eV)
  ---------------------------------------------------
  alpha Z        PSCENC =         0.21758540
  Ewald energy   TEWEN  =       271.45142057
  -Hartree energ DENC   =     -1060.70489666
  -exchange      EXHF   =         0.00000000
  -V(xc)+E(xc)   XCENC  =        63.93051305
  PAW double counting   =      5101.82813885    -5104.70122719
  entropy T*S    EENTRO =        -0.00000000
  eigenvalues    EBANDS =      -215.06818284
  atomic energy  EATOM  =       914.70366869
  Solvation  Ediel_sol  =         0.00000000
  ---------------------------------------------------
  free energy    TOTEN  =       -28.34298013 eV

  energy without entropy =      -28.34298013  energy(sigma->0) =      -28.34298013


--------------------------------------------------------------------------------------------------------




--------------------------------------- Iteration      1(  19)  ---------------------------------------


    POTLOK:  cpu time    2.6753: real time    2.6835
    SETDIJ:  cpu time    0.0042: real time    0.0042
    EDDIAG:  cpu time    0.6740: real time    0.6752
  RMM-DIIS:  cpu time    3.4296: real time    3.4345
    ORTHCH:  cpu time    0.0186: real time    0.0186
       DOS:  cpu time    0.0002: real time    0.0002
    CHARGE:  cpu time    0.4690: real time    0.4707
    MIXING:  cpu time    0.0942: real time    0.0942
    --------------------------------------------
      LOOP:  cpu time    7.3651: real time    7.3812

 eigenvalue-minimisations  :    60
 total energy-change (2. order) : 0.7479466E-03  (-0.1813840E-03)
 number of electron      16.0000000 magnetization 
 augmentation part        0.1118095 magnetization 

 Broyden mixing:
  rms(total) = 0.24302E-01    rms(broyden)= 0.24302E-01
  rms(prec ) = 0.24923E-01
  weight for this iteration     100.00

 eigenvalues of (default mixing * dielectric matrix)
  average eigenvalue GAMMA=   1.8074
  6.8558  3.5747  2.4521  2.4521  1.5613  1.5613  0.8527  0.8527  0.8798  0.8798
  0.9328  0.9328  0.7580  0.7580

 Free energy of the ion-electron system (eV)
  ---------------------------------------------------
  alpha Z        PSCENC =         0.21758540
  Ewald energy   TEWEN  =       271.45142057
  -Hartree energ DENC   =     -1061.19779951
  -exchange      EXHF   =         0.00000000
  -V(xc)+E(xc)   XCENC  =        63.95561876
  PAW double counting   =      5081.22165697    -5084.10100401
  entropy T*S    EENTRO =        -0.00000000
  eigenvalues    EBANDS =      -214.59337906
  atomic energy  EATOM  =       914.70366869
  Solvation  Ediel_sol  =         0.00000000
  ---------------------------------------------------
  free energy    TOTEN  =       -28.34223218 eV

  energy without entropy =      -28.34223218  energy(sigma->0) =      -28.34223218


--------------------------------------------------------------------------------------------------------




--------------------------------------- Iteration      1(  20)  ---------------------------------------


    POTLOK:  cpu time    2.6736: real time    2.6770
    SETDIJ:  cpu time    0.0067: real time    0.0067
    EDDIAG:  cpu time    0.6663: real time    0.6666
  RMM-DIIS:  cpu time    3.6461: real time    3.6513
    ORTHCH:  cpu time    0.0188: real time    0.0188
       DOS:  cpu time    0.0003: real time    0.0003
    CHARGE:  cpu time    0.4695: real time    0.4701
    MIXING:  cpu time    0.0975: real time    0.0976
    --------------------------------------------
      LOOP:  cpu time    7.5787: real time    7.5884

 eigenvalue-minimisations  :    64
 total energy-change (2. order) : 0.1525452E-03  (-0.4732032E-03)
 number of electron      16.0000000 magnetization 
 augmentation part        0.1104793 magnetization 

 Broyden mixing:
  rms(total) = 0.10184E-01    rms(broyden)= 0.10184E-01
  rms(prec ) = 0.11011E-01
  weight for this iteration     100.00

 eigenvalues of (default mixing * dielectric matrix)
  average eigenvalue GAMMA=   1.7260
  6.9481  3.6008  2.4659  2.4659  1.5900  1.5900  0.8516  0.8516  0.8849  0.8849
  0.9144  0.9144  0.7649  0.7649  0.3976

 Free energy of the ion-electron system (eV)
  ---------------------------------------------------
  alpha Z        PSCENC =         0.21758540
  Ewald energy   TEWEN  =       271.45142057
  -Hartree energ DENC   =     -1061.82713932
  -exchange      EXHF   =         0.00000000
  -V(xc)+E(xc)   XCENC  =        63.98740534
  PAW double counting   =      5044.21202415    -5047.09956414
  entropy T*S    EENTRO =        -0.00000000
  eigenvalues    EBANDS =      -213.98748033
  atomic energy  EATOM  =       914.70366869
  Solvation  Ediel_sol  =         0.00000000
  ---------------------------------------------------
  free energy    TOTEN  =       -28.34207964 eV

  energy without entropy =      -28.34207964  energy(sigma->0) =      -28.34207964


--------------------------------------------------------------------------------------------------------




--------------------------------------- Iteration      1(  21)  ---------------------------------------


    POTLOK:  cpu time    2.6854: real time    2.6925
    SETDIJ:  cpu time    0.0042: real time    0.0042
    EDDIAG:  cpu time    0.6657: real time    0.6672
  RMM-DIIS:  cpu time    4.0638: real time    4.0726
    ORTHCH:  cpu time    0.0194: real time    0.0194
       DOS:  cpu time    0.0003: real time    0.0003
    CHARGE:  cpu time    0.4717: real time    0.4723
    MIXING:  cpu time    0.1050: real time    0.1051
    --------------------------------------------
      LOOP:  cpu time    8.0154: real time    8.0336

 eigenvalue-minimisations  :    72
 total energy-change (2. order) :-0.2093842E-03  (-0.1678733E-03)
 number of electron      16.0000000 magnetization 
 augmentation part        0.1095926 magnetization 

 Broyden mixing:
  rms(total) = 0.28077E-01    rms(broyden)= 0.28077E-01
  rms(prec ) = 0.28501E-01
  weight for this iteration     100.00

 eigenvalues of (default mixing * dielectric matrix)
  average eigenvalue GAMMA=   1.8214
  7.4772  3.1263  3.1263  2.6454  1.7996  1.7996  1.2856  1.2856  0.8531  0.8531
  0.9681  0.9681  0.8138  0.8138  0.6634  0.6634

 Free energy of the ion-electron system (eV)
  ---------------------------------------------------
  alpha Z        PSCENC =         0.21758540
  Ewald energy   TEWEN  =       271.45142057
  -Hartree energ DENC   =     -1062.07132070
  -exchange      EXHF   =         0.00000000
  -V(xc)+E(xc)   XCENC  =        63.99995246
  PAW double counting   =      5028.85254109    -5031.74321005
  entropy T*S    EENTRO =        -0.00000000
  eigenvalues    EBANDS =      -213.75292648
  atomic energy  EATOM  =       914.70366869
  Solvation  Ediel_sol  =         0.00000000
  ---------------------------------------------------
  free energy    TOTEN  =       -28.34228902 eV

  energy without entropy =      -28.34228902  energy(sigma->0) =      -28.34228902


--------------------------------------------------------------------------------------------------------




--------------------------------------- Iteration      1(  22)  ---------------------------------------


    POTLOK:  cpu time    2.6915: real time    2.7172
    SETDIJ:  cpu time    0.0058: real time    0.0059
    EDDIAG:  cpu time    0.6488: real time    0.6638
  RMM-DIIS:  cpu time    3.6829: real time    3.7308
    ORTHCH:  cpu time    0.0204: real time    0.0205
       DOS:  cpu time    0.0003: real time    0.0003
    CHARGE:  cpu time    0.4691: real time    0.4716
    MIXING:  cpu time    0.1139: real time    0.1144
    --------------------------------------------
      LOOP:  cpu time    7.6328: real time    7.7245

 eigenvalue-minimisations  :    66
 total energy-change (2. order) :-0.5736061E-03  (-0.2087788E-03)
 number of electron      16.0000000 magnetization 
 augmentation part        0.1087257 magnetization 

 Broyden mixing:
  rms(total) = 0.51353E-01    rms(broyden)= 0.51353E-01
  rms(prec ) = 0.51819E-01
  weight for this iteration     100.00

 eigenvalues of (default mixing * dielectric matrix)
  average eigenvalue GAMMA=   2.0187
  9.1180  4.7039  3.6805  2.6718  2.3121  1.6249  1.6249  0.8528  0.8528  1.0250
  1.0250  0.8634  0.8634  0.9003  0.9003  0.6492  0.6492

 Free energy of the ion-electron system (eV)
  ---------------------------------------------------
  alpha Z        PSCENC =         0.21758540
  Ewald energy   TEWEN  =       271.45142057
  -Hartree energ DENC   =     -1062.53743481
  -exchange      EXHF   =         0.00000000
  -V(xc)+E(xc)   XCENC  =        64.02456526
  PAW double counting   =      5005.44026310    -5008.33699610
  entropy T*S    EENTRO =        -0.00000000
  eigenvalues    EBANDS =      -213.30593472
  atomic energy  EATOM  =       914.70366869
  Solvation  Ediel_sol  =         0.00000000
  ---------------------------------------------------
  free energy    TOTEN  =       -28.34286263 eV

  energy without entropy =      -28.34286263  energy(sigma->0) =      -28.34286263


--------------------------------------------------------------------------------------------------------




--------------------------------------- Iteration      1(  23)  ---------------------------------------


    POTLOK:  cpu time    2.6544: real time    2.6716
    SETDIJ:  cpu time    0.0063: real time    0.0063
    EDDIAG:  cpu time    0.6698: real time    0.6723
  RMM-DIIS:  cpu time    3.4434: real time    3.4615
    ORTHCH:  cpu time    0.0197: real time    0.0197
       DOS:  cpu time    0.0003: real time    0.0003
    CHARGE:  cpu time    0.4723: real time    0.4736
    MIXING:  cpu time    0.1106: real time    0.1118
    --------------------------------------------
      LOOP:  cpu time    7.3767: real time    7.4170

 eigenvalue-minimisations  :    60
 total energy-change (2. order) : 0.1030269E-02  (-0.8152111E-04)
 number of electron      16.0000000 magnetization 
 augmentation part        0.1091991 magnetization 

 Broyden mixing:
  rms(total) = 0.32458E-01    rms(broyden)= 0.32458E-01
  rms(prec ) = 0.32809E-01
  weight for this iteration     100.00

 eigenvalues of (default mixing * dielectric matrix)
  average eigenvalue GAMMA=   2.0862
  9.8172  5.6939  3.3111  2.5982  2.5982  1.8545  1.8545  1.1549  1.1549  0.8532
  0.8532  1.0056  1.0056  0.8347  0.8347  0.8087  0.6595  0.6595

 Free energy of the ion-electron system (eV)
  ---------------------------------------------------
  alpha Z        PSCENC =         0.21758540
  Ewald energy   TEWEN  =       271.45142057
  -Hartree energ DENC   =     -1062.16073279
  -exchange      EXHF   =         0.00000000
  -V(xc)+E(xc)   XCENC  =        64.00376197
  PAW double counting   =      5038.38119074    -5041.27306259
  entropy T*S    EENTRO =        -0.00000000
  eigenvalues    EBANDS =      -213.66566435
  atomic energy  EATOM  =       914.70366869
  Solvation  Ediel_sol  =         0.00000000
  ---------------------------------------------------
  free energy    TOTEN  =       -28.34183236 eV

  energy without entropy =      -28.34183236  energy(sigma->0) =      -28.34183236


--------------------------------------------------------------------------------------------------------




--------------------------------------- Iteration      1(  24)  ---------------------------------------


    POTLOK:  cpu time    2.6830: real time    2.6937
    SETDIJ:  cpu time    0.0095: real time    0.0095
    EDDIAG:  cpu time    0.6640: real time    0.6674
  RMM-DIIS:  cpu time    3.6468: real time    3.6967
    ORTHCH:  cpu time    0.0208: real time    0.0209
       DOS:  cpu time    0.0004: real time    0.0004
    CHARGE:  cpu time    0.4635: real time    0.4703
    MIXING:  cpu time    0.1194: real time    0.1196
    --------------------------------------------
      LOOP:  cpu time    7.6074: real time    7.6785

 eigenvalue-minimisations  :    64
 total energy-change (2. order) :-0.5020368E-04  (-0.6053623E-03)
 number of electron      16.0000000 magnetization 
 augmentation part        0.1106432 magnetization 

 Broyden mixing:
  rms(total) = 0.77868E-02    rms(broyden)= 0.77868E-02
  rms(prec ) = 0.79463E-02
  weight for this iteration     100.00

 eigenvalues of (default mixing * dielectric matrix)
  average eigenvalue GAMMA=   2.3917
 13.9792  6.9266  3.2665  2.8618  2.8618  2.2781  2.2781  0.8531  0.8531  1.0892
  1.0892  1.1650  1.1650  0.8420  0.8420  0.8873  0.8873  0.6584  0.6584

 Free energy of the ion-electron system (eV)
  ---------------------------------------------------
  alpha Z        PSCENC =         0.21758540
  Ewald energy   TEWEN  =       271.45142057
  -Hartree energ DENC   =     -1061.40613248
  -exchange      EXHF   =         0.00000000
  -V(xc)+E(xc)   XCENC  =        63.96204309
  PAW double counting   =      5083.90582890    -5086.78764459
  entropy T*S    EENTRO =        -0.00000000
  eigenvalues    EBANDS =      -214.38865214
  atomic energy  EATOM  =       914.70366869
  Solvation  Ediel_sol  =         0.00000000
  ---------------------------------------------------
  free energy    TOTEN  =       -28.34188256 eV

  energy without entropy =      -28.34188256  energy(sigma->0) =      -28.34188256


--------------------------------------------------------------------------------------------------------




--------------------------------------- Iteration      1(  25)  ---------------------------------------


    POTLOK:  cpu time    2.6414: real time    2.6864
    SETDIJ:  cpu time    0.0016: real time    0.0016
    EDDIAG:  cpu time    0.6491: real time    0.6688
  RMM-DIIS:  cpu time    4.0006: real time    4.1987
    ORTHCH:  cpu time    0.0200: real time    0.0200
       DOS:  cpu time    0.0003: real time    0.0003
    CHARGE:  cpu time    0.4705: real time    0.4714
    MIXING:  cpu time    0.1271: real time    0.1273
    --------------------------------------------
      LOOP:  cpu time    7.9106: real time    8.1746

 eigenvalue-minimisations  :    74
 total energy-change (2. order) :-0.5196798E-03  (-0.1424875E-03)
 number of electron      16.0000000 magnetization 
 augmentation part        0.1114439 magnetization 

 Broyden mixing:
  rms(total) = 0.20715E-01    rms(broyden)= 0.20715E-01
  rms(prec ) = 0.20892E-01
  weight for this iteration     100.00

 eigenvalues of (default mixing * dielectric matrix)
  average eigenvalue GAMMA=   2.4121
 15.4893  7.1617  3.3609  2.9970  2.9970  2.1620  2.1620  0.8531  0.8531  1.1340
  1.1340  1.1882  1.1882  0.9569  0.9569  0.8191  0.8191  0.7035  0.6528  0.6528

 Free energy of the ion-electron system (eV)
  ---------------------------------------------------
  alpha Z        PSCENC =         0.21758540
  Ewald energy   TEWEN  =       271.45142057
  -Hartree energ DENC   =     -1061.24761653
  -exchange      EXHF   =         0.00000000
  -V(xc)+E(xc)   XCENC  =        63.95252969
  PAW double counting   =      5090.53820496    -5093.41794946
  entropy T*S    EENTRO =        -0.00000000
  eigenvalues    EBANDS =      -214.54024557
  atomic energy  EATOM  =       914.70366869
  Solvation  Ediel_sol  =         0.00000000
  ---------------------------------------------------
  free energy    TOTEN  =       -28.34240224 eV

  energy without entropy =      -28.34240224  energy(sigma->0) =      -28.34240224


--------------------------------------------------------------------------------------------------------




--------------------------------------- Iteration      1(  26)  ---------------------------------------


    POTLOK:  cpu time    2.6983: real time    2.7050
    SETDIJ:  cpu time    0.0060: real time    0.0060
    EDDIAG:  cpu time    0.6675: real time    0.6698
  RMM-DIIS:  cpu time    3.8443: real time    3.8569
    ORTHCH:  cpu time    0.0180: real time    0.0180
       DOS:  cpu time    0.0002: real time    0.0002
    CHARGE:  cpu time    0.4734: real time    0.4744
    MIXING:  cpu time    0.1330: real time    0.1331
    --------------------------------------------
      LOOP:  cpu time    7.8406: real time    7.8635

 eigenvalue-minimisations  :    68
 total energy-change (2. order) :-0.1669897E-03  (-0.5642628E-05)
 number of electron      16.0000000 magnetization 
 augmentation part        0.1113760 magnetization 

 Broyden mixing:
  rms(total) = 0.18873E-01    rms(broyden)= 0.18873E-01
  rms(prec ) = 0.19024E-01
  weight for this iteration     100.00

 eigenvalues of (default mixing * dielectric matrix)
  average eigenvalue GAMMA=   3.0560
 27.6498  7.7166  4.0652  3.3928  2.9214  2.5388  2.0561  2.0561  1.1470  1.1470
  0.8531  0.8531  1.0832  1.0832  0.9440  0.9440  0.8257  0.8257  0.7463  0.6631
  0.6631

 Free energy of the ion-electron system (eV)
  ---------------------------------------------------
  alpha Z        PSCENC =         0.21758540
  Ewald energy   TEWEN  =       271.45142057
  -Hartree energ DENC   =     -1061.31400680
  -exchange      EXHF   =         0.00000000
  -V(xc)+E(xc)   XCENC  =        63.95573026
  PAW double counting   =      5084.78099341    -5087.66134295
  entropy T*S    EENTRO =        -0.00000000
  eigenvalues    EBANDS =      -214.47661781
  atomic energy  EATOM  =       914.70366869
  Solvation  Ediel_sol  =         0.00000000
  ---------------------------------------------------
  free energy    TOTEN  =       -28.34256923 eV

  energy without entropy =      -28.34256923  energy(sigma->0) =      -28.34256923


--------------------------------------------------------------------------------------------------------




--------------------------------------- Iteration      1(  27)  ---------------------------------------


    POTLOK:  cpu time    2.7060: real time    2.7177
    SETDIJ:  cpu time    0.0033: real time    0.0033
    EDDIAG:  cpu time    0.6632: real time    0.6649
  RMM-DIIS:  cpu time    3.4346: real time    3.4438
    ORTHCH:  cpu time    0.0190: real time    0.0190
       DOS:  cpu time    0.0002: real time    0.0002
    CHARGE:  cpu time    0.4693: real time    0.4717
    MIXING:  cpu time    0.1390: real time    0.1395
    --------------------------------------------
      LOOP:  cpu time    7.4347: real time    7.4600

 eigenvalue-minimisations  :    60
 total energy-change (2. order) :-0.5546001E-04  (-0.2106026E-04)
 number of electron      16.0000000 magnetization 
 augmentation part        0.1111178 magnetization 

 Broyden mixing:
  rms(total) = 0.88070E-02    rms(broyden)= 0.88070E-02
  rms(prec ) = 0.89331E-02
  weight for this iteration     100.00

 eigenvalues of (default mixing * dielectric matrix)
  average eigenvalue GAMMA=   3.1078
 30.8917  7.8227  4.5257  2.7591  2.7591  2.5490  2.1305  2.1305  1.1905  1.1905
  0.8531  0.8531  1.1056  1.1056  0.9161  0.9161  0.8668  0.8668  0.8118  0.8118
  0.6573  0.6573

 Free energy of the ion-electron system (eV)
  ---------------------------------------------------
  alpha Z        PSCENC =         0.21758540
  Ewald energy   TEWEN  =       271.45142057
  -Hartree energ DENC   =     -1061.46365051
  -exchange      EXHF   =         0.00000000
  -V(xc)+E(xc)   XCENC  =        63.96336547
  PAW double counting   =      5067.14949918    -5070.03170142
  entropy T*S    EENTRO =        -0.00000000
  eigenvalues    EBANDS =      -214.33281207
  atomic energy  EATOM  =       914.70366869
  Solvation  Ediel_sol  =         0.00000000
  ---------------------------------------------------
  free energy    TOTEN  =       -28.34262469 eV

  energy without entropy =      -28.34262469  energy(sigma->0) =      -28.34262469


--------------------------------------------------------------------------------------------------------




--------------------------------------- Iteration      1(  28)  ---------------------------------------


    POTLOK:  cpu time    2.6958: real time    2.7017
    SETDIJ:  cpu time    0.0038: real time    0.0038
    EDDIAG:  cpu time    0.6670: real time    0.6686
  RMM-DIIS:  cpu time    3.0955: real time    3.1033
    ORTHCH:  cpu time    0.0203: real time    0.0203
       DOS:  cpu time    0.0002: real time    0.0002
    CHARGE:  cpu time    0.4732: real time    0.4750
    MIXING:  cpu time    0.1472: real time    0.1476
    --------------------------------------------
      LOOP:  cpu time    7.1030: real time    7.1206

 eigenvalue-minimisations  :    54
 total energy-change (2. order) :-0.8184951E-04  (-0.5841053E-04)
 number of electron      16.0000000 magnetization 
 augmentation part        0.1106657 magnetization 

 Broyden mixing:
  rms(total) = 0.13609E-02    rms(broyden)= 0.13609E-02
  rms(prec ) = 0.14695E-02
  weight for this iteration     100.00

 eigenvalues of (default mixing * dielectric matrix)
  average eigenvalue GAMMA=   3.3837
 36.9001  8.0511  5.1398  3.1601  2.7228  2.7228  2.3691  2.3691  1.2432  1.2432
  0.8531  0.8531  1.1141  1.1141  1.1468  1.1468  0.8232  0.8232  0.9766  0.9356
  0.7977  0.6593  0.6593

 Free energy of the ion-electron system (eV)
  ---------------------------------------------------
  alpha Z        PSCENC =         0.21758540
  Ewald energy   TEWEN  =       271.45142057
  -Hartree energ DENC   =     -1061.68894471
  -exchange      EXHF   =         0.00000000
  -V(xc)+E(xc)   XCENC  =        63.97527177
  PAW double counting   =      5060.30617203    -5063.19121686
  entropy T*S    EENTRO =        -0.00000000
  eigenvalues    EBANDS =      -214.11666343
  atomic energy  EATOM  =       914.70366869
  Solvation  Ediel_sol  =         0.00000000
  ---------------------------------------------------
  free energy    TOTEN  =       -28.34270654 eV

  energy without entropy =      -28.34270654  energy(sigma->0) =      -28.34270654


--------------------------------------------------------------------------------------------------------




--------------------------------------- Iteration      1(  29)  ---------------------------------------


    POTLOK:  cpu time    2.6975: real time    2.7049
    SETDIJ:  cpu time    0.0020: real time    0.0020
    EDDIAG:  cpu time    0.6683: real time    0.6695
  RMM-DIIS:  cpu time    3.6457: real time    3.6562
    ORTHCH:  cpu time    0.0183: real time    0.0183
       DOS:  cpu time    0.0003: real time    0.0003
    CHARGE:  cpu time    0.4784: real time    0.4792
    MIXING:  cpu time    0.1568: real time    0.1574
    --------------------------------------------
      LOOP:  cpu time    7.6673: real time    7.6879

 eigenvalue-minimisations  :    64
 total energy-change (2. order) :-0.1575291E-03  (-0.1289886E-04)
 number of electron      16.0000000 magnetization 
 augmentation part        0.1104328 magnetization 

 Broyden mixing:
  rms(total) = 0.53079E-02    rms(broyden)= 0.53079E-02
  rms(prec ) = 0.53683E-02
  weight for this iteration     100.00

 eigenvalues of (default mixing * dielectric matrix)
  average eigenvalue GAMMA=   3.4655
 40.3188  8.2492  5.4493  3.1325  2.8812  2.8812  2.2754  2.0081  2.0081  1.3949
  0.8531  0.8531  1.1416  1.1416  0.9809  0.9809  1.0317  1.0317  0.8116  0.8116
  0.8098  0.8098  0.6586  0.6586

 Free energy of the ion-electron system (eV)
  ---------------------------------------------------
  alpha Z        PSCENC =         0.21758540
  Ewald energy   TEWEN  =       271.45142057
  -Hartree energ DENC   =     -1061.73530889
  -exchange      EXHF   =         0.00000000
  -V(xc)+E(xc)   XCENC  =        63.97771017
  PAW double counting   =      5058.08710129    -5060.97276259
  entropy T*S    EENTRO =        -0.00000000
  eigenvalues    EBANDS =      -214.07227870
  atomic energy  EATOM  =       914.70366869
  Solvation  Ediel_sol  =         0.00000000
  ---------------------------------------------------
  free energy    TOTEN  =       -28.34286407 eV

  energy without entropy =      -28.34286407  energy(sigma->0) =      -28.34286407


--------------------------------------------------------------------------------------------------------




--------------------------------------- Iteration      1(  30)  ---------------------------------------


    POTLOK:  cpu time    2.6883: real time    2.6940
    SETDIJ:  cpu time    0.0040: real time    0.0040
    EDDIAG:  cpu time    0.6641: real time    0.6659
  RMM-DIIS:  cpu time    3.6153: real time    3.6243
    ORTHCH:  cpu time    0.0187: real time    0.0193
       DOS:  cpu time    0.0003: real time    0.0003
    CHARGE:  cpu time    0.4685: real time    0.4698
    MIXING:  cpu time    0.1658: real time    0.1661
    --------------------------------------------
      LOOP:  cpu time    7.6250: real time    7.6437

 eigenvalue-minimisations  :    64
 total energy-change (2. order) :-0.1479066E-03  (-0.1257777E-05)
[...]
  atomic energy  EATOM  =       914.70366869
  Solvation  Ediel_sol  =         0.00000000
  ---------------------------------------------------
  free energy    TOTEN  =       -28.34327838 eV

  energy without entropy =      -28.34327838  energy(sigma->0) =      -28.34327838


--------------------------------------------------------------------------------------------------------




--------------------------------------- Iteration      1(  43)  ---------------------------------------


    POTLOK:  cpu time    2.7775: real time    2.7829
    SETDIJ:  cpu time    0.0040: real time    0.0040
    EDDIAG:  cpu time    0.6668: real time    0.6676
  RMM-DIIS:  cpu time    2.2933: real time    2.2982
    ORTHCH:  cpu time    0.0196: real time    0.0196
       DOS:  cpu time    0.0003: real time    0.0003
    CHARGE:  cpu time    0.4700: real time    0.4706
    MIXING:  cpu time    0.3032: real time    0.3037
    --------------------------------------------
      LOOP:  cpu time    6.5348: real time    6.5471

 eigenvalue-minimisations  :    36
 total energy-change (2. order) :-0.8657480E-07  (-0.5202878E-09)
 number of electron      16.0000000 magnetization 
 augmentation part        0.1106481 magnetization 

 Broyden mixing:
  rms(total) = 0.33834E-04    rms(broyden)= 0.33834E-04
  rms(prec ) = 0.34161E-04
  weight for this iteration     100.00

 eigenvalues of (default mixing * dielectric matrix)
  average eigenvalue GAMMA=   3.7150
 58.6384 16.6662  8.3763  6.7564  5.4014  3.9720  2.8109  2.8109  3.0045  2.5373
  2.3048  1.9551  1.9551  1.3403  1.3403  0.8531  0.8531  1.1756  1.1756  1.0807
  1.0807  1.2195  1.2195  1.0960  1.0960  0.9236  0.9236  0.9540  0.8267  0.8267
  0.7960  0.7960  0.6586  0.6586  0.8192  0.7960  0.7360  0.7360

 Free energy of the ion-electron system (eV)
  ---------------------------------------------------
  alpha Z        PSCENC =         0.21758540
  Ewald energy   TEWEN  =       271.45142057
  -Hartree energ DENC   =     -1061.63158887
  -exchange      EXHF   =         0.00000000
  -V(xc)+E(xc)   XCENC  =        63.97134697
  PAW double counting   =      5063.99971235    -5066.88403717
  entropy T*S    EENTRO =        -0.00000000
  eigenvalues    EBANDS =      -214.17138640
  atomic energy  EATOM  =       914.70366869
  Solvation  Ediel_sol  =         0.00000000
  ---------------------------------------------------
  free energy    TOTEN  =       -28.34327846 eV

  energy without entropy =      -28.34327846  energy(sigma->0) =      -28.34327846


--------------------------------------------------------------------------------------------------------




--------------------------------------- Iteration      1(  44)  ---------------------------------------


    POTLOK:  cpu time    2.7713: real time    2.7762
    SETDIJ:  cpu time    0.0038: real time    0.0038
    EDDIAG:  cpu time    0.6730: real time    0.6748
  RMM-DIIS:  cpu time    2.5585: real time    2.5965
    ORTHCH:  cpu time    0.0198: real time    0.0198
       DOS:  cpu time    0.0002: real time    0.0002
    CHARGE:  cpu time    0.4631: real time    0.4645
    MIXING:  cpu time    0.3164: real time    0.3168
    --------------------------------------------
      LOOP:  cpu time    6.8062: real time    6.8526

 eigenvalue-minimisations  :    42
 total energy-change (2. order) :-0.2443267E-07  (-0.1931211E-09)
 number of electron      16.0000000 magnetization 
 augmentation part        0.1106480 magnetization 

 Broyden mixing:
  rms(total) = 0.30882E-04    rms(broyden)= 0.30882E-04
  rms(prec ) = 0.31163E-04
  weight for this iteration     100.00

 eigenvalues of (default mixing * dielectric matrix)
  average eigenvalue GAMMA=   3.6927
 58.6356 16.6744  8.3762  6.9275  5.3552  4.0697  3.2403  2.8158  2.8158  2.5757
  2.3464  2.3464  1.8170  1.8170  1.4287  1.4287  1.4908  1.1581  1.1581  0.8531
  0.8531  1.0745  1.0745  1.1138  1.1138  0.8843  0.8843  0.9789  0.9056  0.9056
  0.8074  0.8074  0.6586  0.6586  0.8305  0.8305  0.7803  0.7803  0.7436

 Free energy of the ion-electron system (eV)
  ---------------------------------------------------
  alpha Z        PSCENC =         0.21758540
  Ewald energy   TEWEN  =       271.45142057
  -Hartree energ DENC   =     -1061.63137633
  -exchange      EXHF   =         0.00000000
  -V(xc)+E(xc)   XCENC  =        63.97133524
  PAW double counting   =      5064.00207979    -5066.88640216
  entropy T*S    EENTRO =        -0.00000000
  eigenvalues    EBANDS =      -214.17158969
  atomic energy  EATOM  =       914.70366869
  Solvation  Ediel_sol  =         0.00000000
  ---------------------------------------------------
  free energy    TOTEN  =       -28.34327849 eV

  energy without entropy =      -28.34327849  energy(sigma->0) =      -28.34327849


--------------------------------------------------------------------------------------------------------




--------------------------------------- Iteration      1(  45)  ---------------------------------------


    POTLOK:  cpu time    2.7628: real time    2.7726
    SETDIJ:  cpu time    0.0042: real time    0.0042
    EDDIAG:  cpu time    0.6663: real time    0.6680
  RMM-DIIS:  cpu time    2.3942: real time    2.4000
    ORTHCH:  cpu time    0.0208: real time    0.0208
       DOS:  cpu time    0.0003: real time    0.0003
    CHARGE:  cpu time    0.4718: real time    0.4731
    MIXING:  cpu time    0.3276: real time    0.3279
    --------------------------------------------
      LOOP:  cpu time    6.6481: real time    6.6671

 eigenvalue-minimisations  :    40
 total energy-change (2. order) :-0.5806305E-07  (-0.2974501E-09)
 number of electron      16.0000000 magnetization 
 augmentation part        0.1106484 magnetization 

 Broyden mixing:
  rms(total) = 0.86642E-05    rms(broyden)= 0.86641E-05
  rms(prec ) = 0.88423E-05
  weight for this iteration     100.00

 eigenvalues of (default mixing * dielectric matrix)
  average eigenvalue GAMMA=   3.6684
 58.6383 16.6787  8.3733  7.1489  4.9713  4.9713  3.1736  3.1736  2.7814  2.7814
  2.4154  2.4154  2.2612  1.7027  1.7027  1.3302  1.3302  0.8531  0.8531  1.1585
  1.1585  1.1274  1.1274  1.1123  1.1123  0.9831  0.9831  0.9883  0.8935  0.8935
  0.8070  0.8070  0.8592  0.8592  0.6586  0.6586  0.7772  0.7775  0.7775  0.6588

 Free energy of the ion-electron system (eV)
  ---------------------------------------------------
  alpha Z        PSCENC =         0.21758540
  Ewald energy   TEWEN  =       271.45142057
  -Hartree energ DENC   =     -1061.63079522
  -exchange      EXHF   =         0.00000000
  -V(xc)+E(xc)   XCENC  =        63.97130272
  PAW double counting   =      5064.01897969    -5066.90329546
  entropy T*S    EENTRO =        -0.00000000
  eigenvalues    EBANDS =      -214.17214493
  atomic energy  EATOM  =       914.70366869
  Solvation  Ediel_sol  =         0.00000000
  ---------------------------------------------------
  free energy    TOTEN  =       -28.34327854 eV

  energy without entropy =      -28.34327854  energy(sigma->0) =      -28.34327854


--------------------------------------------------------------------------------------------------------




--------------------------------------- Iteration      1(  46)  ---------------------------------------


    POTLOK:  cpu time    2.7867: real time    2.7982
    SETDIJ:  cpu time    0.0041: real time    0.0041
    EDDIAG:  cpu time    0.6674: real time    0.6682
  RMM-DIIS:  cpu time    2.3556: real time    2.3611
    ORTHCH:  cpu time    0.0198: real time    0.0198
       DOS:  cpu time    0.0003: real time    0.0003
    CHARGE:  cpu time    0.4725: real time    0.4730
    MIXING:  cpu time    0.3439: real time    0.3450
    --------------------------------------------
      LOOP:  cpu time    6.6501: real time    6.6697

 eigenvalue-minimisations  :    38
 total energy-change (2. order) :-0.2890010E-07  (-0.2772174E-09)
 number of electron      16.0000000 magnetization 
 augmentation part        0.1106489 magnetization 

 Broyden mixing:
  rms(total) = 0.86696E-05    rms(broyden)= 0.86696E-05
  rms(prec ) = 0.87881E-05
  weight for this iteration     100.00

 eigenvalues of (default mixing * dielectric matrix)
  average eigenvalue GAMMA=   3.5976
 58.6425 16.6822  8.3918  7.2294  5.3005  4.7267  3.1153  2.7793  2.7793  2.8896
  2.4539  2.4539  2.3283  1.7602  1.7602  1.4093  1.4093  1.1587  1.1587  0.8531
  0.8531  0.9328  0.9328  1.0201  1.0201  1.0865  1.0865  0.9311  0.9311  0.9407
  0.9407  0.8362  0.8362  0.8041  0.8041  0.8388  0.6586  0.6586  0.7519  0.7519
  0.6047

 Free energy of the ion-electron system (eV)
  ---------------------------------------------------
  alpha Z        PSCENC =         0.21758540
  Ewald energy   TEWEN  =       271.45142057
  -Hartree energ DENC   =     -1061.63048375
  -exchange      EXHF   =         0.00000000
  -V(xc)+E(xc)   XCENC  =        63.97128486
  PAW double counting   =      5064.03313055    -5066.91744275
  entropy T*S    EENTRO =        -0.00000000
  eigenvalues    EBANDS =      -214.17244215
  atomic energy  EATOM  =       914.70366869
  Solvation  Ediel_sol  =         0.00000000
  ---------------------------------------------------
  free energy    TOTEN  =       -28.34327857 eV

  energy without entropy =      -28.34327857  energy(sigma->0) =      -28.34327857


--------------------------------------------------------------------------------------------------------




--------------------------------------- Iteration      1(  47)  ---------------------------------------


    POTLOK:  cpu time    2.7869: real time    2.7910
    SETDIJ:  cpu time    0.0047: real time    0.0047
    EDDIAG:  cpu time    0.6699: real time    0.6714
  RMM-DIIS:  cpu time    2.5473: real time    2.5530
    ORTHCH:  cpu time    0.0178: real time    0.0178
       DOS:  cpu time    0.0001: real time    0.0001
    --------------------------------------------
      LOOP:  cpu time    6.0266: real time    6.0379

 eigenvalue-minimisations  :    42
 total energy-change (2. order) :-0.2787601E-08  (-0.1900196E-09)
 number of electron      16.0000000 magnetization 
 augmentation part        0.1106489 magnetization 

 Free energy of the ion-electron system (eV)
  ---------------------------------------------------
  alpha Z        PSCENC =         0.21758540
  Ewald energy   TEWEN  =       271.45142057
  -Hartree energ DENC   =     -1061.63031184
  -exchange      EXHF   =         0.00000000
  -V(xc)+E(xc)   XCENC  =        63.97127538
  PAW double counting   =      5064.04280735    -5066.92711737
  entropy T*S    EENTRO =        -0.00000000
  eigenvalues    EBANDS =      -214.17260675
  atomic energy  EATOM  =       914.70366869
  Solvation  Ediel_sol  =         0.00000000
  ---------------------------------------------------
  free energy    TOTEN  =       -28.34327858 eV

  energy without entropy =      -28.34327858  energy(sigma->0) =      -28.34327858


--------------------------------------------------------------------------------------------------------




 average (electrostatic) potential at core
  the test charge radii are     0.5955  0.4325
  (the norm of the test charge is              1.0000)
       1-119.4896       2-119.7578       3 -46.8212       4 -47.0320       5 -47.1609
       6 -47.1643
 
 
 
 E-fermi :  -6.6416     XC(G=0):  -0.3793     alpha+bet : -0.0904


 k-point     1 :       0.0000    0.2500    0.2500
  band No.  band energies     occupation 
      1     -24.8240      2.00000
      2     -24.5946      2.00000
      3     -12.6339      2.00000
      4     -12.3766      2.00000
      5      -9.3943      2.00000
      6      -9.1461      2.00000
      7      -7.1887      2.00000
      8      -6.9280      2.00000
      9      -1.2364      0.00000
     10      -0.9339      0.00000
     11       0.1683      0.00000
     12       0.2934      0.00000

 k-point     2 :       0.0000   -0.2500    0.2500
  band No.  band energies     occupation 
      1     -24.8240      2.00000
      2     -24.5946      2.00000
      3     -12.6339      2.00000
      4     -12.3766      2.00000
      5      -9.3943      2.00000
      6      -9.1461      2.00000
      7      -7.1887      2.00000
      8      -6.9280      2.00000
      9      -1.2364      0.00000
     10      -0.9338      0.00000
     11       0.1688      0.00000
     12       0.2913      0.00000


--------------------------------------------------------------------------------------------------------


 soft charge-density along one line, spin component           1
         0         1         2         3         4         5         6         7         8         9
 total charge-density along one line
 
 pseudopotential strength for first ion, spin component:           1
 26.724  32.684   0.059  -0.001  -0.040   0.077  -0.001  -0.053
 32.684  39.974   0.072  -0.001  -0.049   0.095  -0.001  -0.064
  0.059   0.072  -9.430   0.001  -0.010 -12.543   0.001  -0.013
 -0.001  -0.001   0.001  -9.385   0.000   0.001 -12.483   0.001
 -0.040  -0.049  -0.010   0.000  -9.438  -0.013   0.001 -12.554
  0.077   0.095 -12.543   0.001  -0.013 -16.672   0.001  -0.017
 -0.001  -0.001   0.001 -12.483   0.001   0.001 -16.590   0.001
 -0.053  -0.064  -0.013   0.001 -12.554  -0.017   0.001 -16.687
 total augmentation occupancy for first ion, spin component:           1
 16.300 -14.431  -9.023   0.089   6.362   4.020  -0.039  -2.884
-14.431  13.919   7.638  -0.075  -5.416  -3.597   0.035   2.592
 -9.023   7.638   8.124  -0.065   0.954  -3.668   0.042  -0.623
  0.089  -0.075  -0.065   3.991  -0.047   0.042  -1.006   0.031
  6.362  -5.416   0.954  -0.047   9.350  -0.624   0.031  -4.436
  4.020  -3.597  -3.668   0.042  -0.624   1.693  -0.023   0.350
 -0.039   0.035   0.042  -1.006   0.031  -0.023   0.254  -0.017
 -2.884   2.592  -0.623   0.031  -4.436   0.350  -0.017   2.124


------------------------ aborting loop because EDIFF is reached ----------------------------------------


    CHARGE:  cpu time    0.4702: real time    0.4708
    FORLOC:  cpu time    0.1132: real time    0.1132
    FORNL :  cpu time    0.1458: real time    0.1459
    STRESS:  cpu time    1.0130: real time    1.0143
    FORCOR:  cpu time    2.6013: real time    2.6073
    FORHAR:  cpu time    0.7654: real time    0.7670
    MIXING:  cpu time    0.3548: real time    0.3552
    OFIELD:  cpu time    0.0001: real time    0.0001

  FORCE on cell =-STRESS in cart. coord.  units (eV):
  Direction    XX          YY          ZZ          XY          YZ          ZX
  --------------------------------------------------------------------------------------
  Alpha Z     0.21759     0.21759     0.21759
  Ewald    -133.82421   213.13122   192.14432    47.25950    -1.04858    -1.19614
  Hartree   136.10327   465.07294   460.45535     9.97571    -0.20685    -0.23020
  E(xc)     -72.99239   -72.84015   -72.99338     0.22418    -0.00560    -0.00579
  Local    -288.45048  -955.95117  -939.16248   -42.71375     0.90763     1.04833
  n-local   -42.68205   -41.37505   -42.38132     2.47901    -0.05866    -0.06448
  augment     1.32383     1.06096     1.33266    -0.32362     0.00852     0.00827
  Kinetic   398.15184   386.94431   397.60107   -18.17530     0.44384     0.47106
  Fock        0.00000     0.00000     0.00000     0.00000     0.00000     0.00000
  -------------------------------------------------------------------------------------
  Total      -2.15260    -3.73936    -2.78618    -1.27427     0.04029     0.03105
  in kB      -1.14961    -1.99704    -1.48798    -0.68054     0.02152     0.01658
  external pressure =       -1.54 kB  Pullay stress =        0.00 kB


 VOLUME and BASIS-vectors are now :
 -----------------------------------------------------------------------------
  energy-cutoff  :     1500.00
  volume of cell :     3000.00
      direct lattice vectors                 reciprocal lattice vectors
    30.000000000  0.000000000  0.000000000     0.033333333  0.000000000  0.000000000
     0.000000000 10.000000000  0.000000000     0.000000000  0.100000000  0.000000000
     0.000000000  0.000000000 10.000000000     0.000000000  0.000000000  0.100000000

  length of vectors
    30.000000000 10.000000000 10.000000000     0.033333333  0.100000000  0.100000000


 FORCES acting on ions
    electron-ion (+dipol)            ewald-force                    non-local-force                 convergence-correction
 -----------------------------------------------------------------------------------------------
   -.576E+02 0.440E+02 -.431E+00   0.855E+02 -.845E+02 0.834E+00   -.285E+02 0.429E+02 -.434E+00   -.280E-04 0.769E-04 -.879E-06
   0.317E+01 -.485E+02 0.191E-01   0.174E+02 0.928E+02 -.551E-01   -.216E+02 -.466E+02 0.511E-01   -.593E-04 -.986E-04 -.516E-08
   -.325E+02 -.758E+02 0.126E+01   0.339E+02 0.797E+02 -.133E+01   -.228E+01 -.621E+01 0.103E+00   0.854E-05 0.303E-04 -.464E-06
   0.793E+02 -.472E+01 -.460E+00   -.850E+02 0.506E+01 0.491E+00   0.728E+01 -.452E+00 -.394E-01   -.274E-04 0.813E-05 0.598E-07
   0.248E+02 0.438E+02 -.661E+02   -.260E+02 -.463E+02 0.699E+02   0.173E+01 0.369E+01 -.552E+01   -.135E-04 -.227E-04 0.220E-04
   0.245E+02 0.441E+02 0.660E+02   -.257E+02 -.467E+02 -.698E+02   0.171E+01 0.372E+01 0.552E+01   -.134E-04 -.229E-04 -.219E-04
 -----------------------------------------------------------------------------------------------
   0.417E+02 0.300E+01 0.320E+00   -.284E-13 0.000E+00 0.000E+00   -.417E+02 -.300E+01 -.320E+00   -.133E-03 -.289E-04 -.126E-05
 
 
 POSITION                                       TOTAL-FORCE (eV/Angst)
 -----------------------------------------------------------------------------------
      5.65607      1.57110      1.76000        -0.724099      2.468341     -0.030795
     28.65393      1.57110      1.76000        -1.079895     -2.329124      0.015077
      5.97632      2.55412      1.74392        -0.807388     -2.363421      0.038895
      4.65418      1.66728      1.76493         1.527478     -0.104667     -0.008100
     28.38369      0.99418      2.56104         0.547924      1.164970     -1.730398
     28.38745      0.99080      0.96072         0.535980      1.163901      1.715322
 -----------------------------------------------------------------------------------
    total drift:                               -0.000027     -0.000002      0.000022


--------------------------------------------------------------------------------------------------------



  FREE ENERGIE OF THE ION-ELECTRON SYSTEM (eV)
  ---------------------------------------------------
  free  energy   TOTEN  =       -28.34327858 eV

  energy  without entropy=      -28.34327858  energy(sigma->0) =      -28.34327858
 


--------------------------------------------------------------------------------------------------------


    POTLOK:  cpu time    2.7925: real time    2.7985


--------------------------------------------------------------------------------------------------------


     LOOP+:  cpu time  342.1851: real time  344.7774
    4ORBIT:  cpu time    0.0000: real time    0.0000

 total amount of memory used by VASP MPI-rank0   207433. kBytes
=======================================================================

   base      :      30000. kBytes
   nonl-proj :       8719. kBytes
   fftplans  :      62778. kBytes
   grid      :     101176. kBytes
   one-center:          3. kBytes
   wavefun   :       4757. kBytes
 
  
  
 General timing and accounting informations for this job:
 ========================================================
  
                  Total CPU time used (sec):      351.137
                            User time (sec):      346.936
                          System time (sec):        4.200
                         Elapsed time (sec):      360.740
  
                   Maximum memory used (kb):      709316.
                   Average memory used (kb):           0.
  
                          Minor page faults:       324204
                          Major page faults:            7
                 Voluntary context switches:          461
