# 813000 LAMMPS data file written by OVITO
288 atoms
2 atom types
-3.3500870882486211e-02 1.8633501570879499e+01 xlo xhi
-2.2333914289605517e-02 1.2422334314288456e+01 ylo yhi
-2.2333914289605517e-02 1.2422334314288456e+01 zlo zhi

Atoms # atomic

163 1 0.205382 2.98106 0.126354 
236 2 1.71015 3.60228 12.1646 
235 1 2.64229 3.93259 11.9866 
165 2 0.324625 2.0574 -0.0132075 
285 2 4.98438 3.29936 1.76166 
218 2 7.25775 2.10557 2.59438 
221 2 5.20958 0.766462 2.4743 
220 1 5.65193 1.60705 2.10176 
222 2 5.96497 1.30839 1.22525 
217 1 8.13663 2.41993 2.97144 
219 2 8.27782 3.1292 2.28377 
9 2 8.17042 0.669177 0.989518 
191 2 9.48451 2.84134 11.7773 
145 1 9.05233 3.93866 0.66953 
147 2 9.92868 3.93466 1.17754 
90 2 11.6811 3.02512 2.31477 
88 1 11.6882 3.74192 1.65869 
99 2 11.5129 0.637668 1.19903 
224 2 14.0607 1.4253 11.8388 
174 2 14.7384 4.01749 2.37587 
172 1 15.2096 3.12272 2.38388 
173 2 14.6708 2.61876 1.70715 
223 1 14.8832 1.54789 12.3123 
89 2 12.3789 4.32953 1.92194 
164 2 18.6074 2.94709 1.15151 
10 1 0.10302 1.29572 4.72346 
12 2 18.2288 1.83813 4.11967 
143 2 16.8923 3.05438 2.40727 
142 1 17.8544 2.9267 2.66687 
144 2 18.0175 3.65193 3.33162 
286 1 3.15283 4.5037 4.08867 
155 2 1.87291 7.12692 2.4743 
154 1 0.895198 7.1078 2.65384 
156 2 0.717869 7.91746 3.16382 
183 2 0.201682 5.69906 3.50994 
288 2 2.257 4.71033 4.3436 
256 1 3.62616 7.07163 2.53855 
257 2 3.87219 7.18195 1.58292 
287 2 3.10665 4.13136 3.22608 
284 2 4.15777 4.40682 0.994709 
283 1 4.97166 4.24485 1.47587 
37 1 7.0634 5.84783 1.07436 
258 2 4.09923 6.37824 2.98399 
39 2 6.30986 5.29495 1.36406 
38 2 6.67114 6.0841 0.18588 
227 2 7.6804 7.40664 1.92568 
146 2 8.73246 4.85314 0.649942 
115 1 10.5381 6.82348 2.63961 
116 2 10.8808 6.56448 1.69839 
117 2 9.71508 7.31081 2.67236 
226 1 7.75907 8.03656 2.67514 
13 1 14.0256 5.57653 2.20691 
14 2 13.4166 6.29692 2.46564 
15 2 14.5302 5.89964 1.39777 
128 2 11.9472 8.14589 2.87926 
127 1 12.8905 8.25617 2.91706 
245 2 14.9624 8.09828 0.320454 
92 2 15.7992 6.33642 3.68832 
54 2 18.27 0.867707 1.92488 
33 2 0.847801 11.3232 3.06474 
52 1 18.5815 0.209834 1.2765 
31 1 1.12584 10.375 3.01669 
32 2 2.10983 10.3127 2.98166 
6 2 1.72184 11.6549 0.647319 
187 1 3.76952 9.74838 3.28673 
188 2 3.67477 8.81069 3.01075 
27 2 4.02283 11.7566 1.33415 
25 1 4.7587 11.6 1.93418 
26 2 4.49041 10.9643 2.59677 
131 2 6.15873 10.8544 1.39918 
130 1 6.83963 10.2551 1.08129 
98 2 10.2211 12.2024 0.955699 
125 2 6.95007 8.11249 4.19324 
228 2 7.37002 8.83803 2.1804 
8 2 8.58327 0.142727 2.43132 
7 1 8.57553 12.3499 1.50548 
132 2 7.66568 10.7356 1.23273 
129 2 13.0718 8.54253 1.98924 
97 1 11.19 12.2007 1.03589 
246 2 13.9318 9.37823 0.286984 
114 2 11.9892 11.2096 -0.0714048 
244 1 14.3812 8.70546 0.805811 
212 2 15.6746 12.2872 0.341478 
211 1 16.3214 11.586 0.448572 
53 2 17.7431 12.1805 0.96362 
203 2 16.7584 9.28405 2.85751 
204 2 15.416 9.27712 1.9662 
202 1 15.918 9.76599 2.69836 
213 2 16.1195 11.0642 1.24857 
185 2 16.3745 11.0542 3.87346 
45 2 3.68251 2.84533 5.56295 
73 1 2.04771 2.2346 6.2476 
75 2 1.64188 3.06376 6.42401 
74 2 1.35743 1.94826 5.53573 
194 2 1.58643 0.67303 7.12143 
43 1 4.63479 2.7596 5.49813 
44 2 4.79995 3.38589 4.8107 
118 1 4.39141 2.65975 8.3278 
119 2 4.6646 2.53603 7.38604 
273 2 4.92683 0.91675 4.91285 
272 2 5.54514 0.395566 6.05984 
271 1 5.06235 0.0433488 5.2869 
240 2 3.99228 1.07206 8.35134 
243 2 9.02178 0.860072 4.69401 
167 2 10.5024 1.15118 3.37678 
241 1 9.05191 12.4183 4.31997 
168 2 10.8193 2.35918 4.281 
42 2 7.7547 3.34158 4.55927 
40 1 7.84185 3.5226 5.51776 
41 2 8.8284 3.56918 5.4818 
265 1 10.5009 3.37167 5.32098 
176 2 7.07606 2.08185 6.5523 
266 2 11.0148 3.10566 6.15244 
175 1 6.88833 1.4701 7.29061 
177 2 7.67522 0.961971 7.38727 
166 1 11.1928 1.74447 3.57367 
76 1 11.7248 2.56633 7.36723 
30 2 13.4475 0.745155 5.59525 
77 2 12.1433 1.80962 6.91354 
28 1 12.5775 0.385945 5.76245 
206 2 15.0605 2.38965 4.40795 
152 2 14.3874 3.88918 8.04851 
29 2 11.9907 0.723629 4.99872 
205 1 15.1134 1.76802 5.1101 
207 2 15.7171 1.11252 4.79391 
11 2 18.1867 0.564029 5.05318 
96 2 15.6924 2.39866 6.77545 
94 1 15.7975 2.67861 7.69502 
95 2 16.3876 3.44005 7.62113 
181 1 0.0870757 5.09381 4.24437 
262 1 1.23311 5.43632 6.88979 
263 2 2.04079 5.6991 7.42607 
264 2 1.01535 6.09076 6.25291 
1 1 1.25829 8.67485 5.22653 
274 1 3.49325 5.23084 8.83657 
120 2 3.91805 3.54265 8.3833 
276 2 4.27081 5.7875 8.64373 
87 2 6.12981 7.00577 8.00145 
55 1 7.40796 5.50916 7.11249 
137 2 11.0043 6.20741 4.06808 
267 2 10.7793 4.21321 5.00322 
56 2 7.1969 4.86861 6.44673 
126 2 6.45918 7.08289 5.23974 
109 1 10.1611 6.30209 7.45469 
110 2 10.4168 6.22877 6.51006 
57 2 8.37108 5.71114 7.08317 
111 2 10.2187 7.17965 7.7919 
136 1 11.1811 5.78431 4.93498 
151 1 13.67 4.52452 8.22859 
138 2 12.1564 5.91684 5.1309 
197 2 13.7025 5.45997 6.66953 
196 1 13.6175 6.10752 5.8844 
134 2 13.6739 7.85587 5.7809 
198 2 14.542 5.92455 5.52946 
182 2 17.9619 5.46812 4.64934 
91 1 16.0818 6.21076 4.60191 
93 2 16.5453 7.07255 4.75257 
47 2 17.7868 5.6316 7.54096 
253 1 16.32 7.96453 8.63197 
201 2 18.553 8.50204 4.87416 
199 1 17.5269 8.47408 4.67366 
46 1 16.9812 5.3342 8.00039 
48 2 16.5134 6.19248 8.29929 
255 2 15.4385 7.70793 8.96958 
2 2 1.30909 9.04432 6.19696 
3 2 1.40772 9.42388 4.66758 
189 2 4.08746 9.63676 4.2711 
248 2 5.65416 9.34728 5.47721 
247 1 4.82804 9.7461 5.85018 
249 2 4.95615 10.7131 5.80808 
162 2 4.41754 9.86543 8.00711 
242 2 8.5186 11.8878 4.94039 
124 1 6.5631 8.02761 5.0596 
100 1 7.98448 10.4117 5.95266 
102 2 7.66305 9.49387 5.83416 
101 2 8.04418 10.5558 6.84777 
17 2 10.5924 9.33273 8.22791 
135 2 13.278 8.94437 4.71706 
133 1 13.554 8.81255 5.65842 
169 1 11.897 10.3384 7.04097 
170 2 11.895 11.1866 6.52879 
171 2 12.3611 9.7399 6.46774 
254 2 16.4262 8.44086 7.81546 
180 2 15.037 9.5858 6.26714 
184 1 16.5758 11.6342 4.58485 
179 2 15.8045 10.3353 7.36722 
186 2 16.3627 11.1625 5.41295 
200 2 17.0775 8.99165 5.30458 
178 1 15.9513 9.84595 6.58655 
268 1 15.4437 12.2453 8.72603 
260 2 2.0007 1.14917 10.6622 
259 1 2.9238 1.2828 10.9788 
237 2 2.97447 3.20307 11.4278 
193 1 1.47984 12.2877 7.6003 
261 2 3.48453 0.864479 10.2868 
35 2 0.869797 0.642386 9.01336 
5 2 2.69563 0.0726173 12.0476 
195 2 2.39553 12.2015 7.98368 
239 2 4.66024 12.0179 8.49866 
238 1 3.96783 0.202515 8.78482 
24 2 4.94774 2.8375 9.87396 
158 2 6.29577 1.90783 11.5352 
157 1 6.79269 1.26566 12.0647 
159 2 6.70607 0.409577 11.563 
23 2 6.13074 3.6861 10.1373 
22 1 5.42037 3.22761 10.6625 
123 2 7.27954 2.71426 8.61669 
192 2 8.33575 1.8209 11.1068 
78 2 10.8384 2.30857 7.8062 
231 2 9.71608 0.310526 8.52229 
190 1 9.29435 2.21441 11.0455 
230 2 9.51689 1.59481 9.44468 
229 1 9.60728 1.32698 8.47476 
121 1 7.47143 3.55607 9.01424 
140 2 11.0851 1.40258 11.206 
153 2 12.9591 3.89131 8.2936 
139 1 12.0417 1.35013 11.0588 
141 2 12.1421 0.982158 10.1724 
21 2 12.3186 3.6381 11.7475 
225 2 15.4598 2.04536 11.6634 
50 2 16.5422 2.54927 9.82385 
269 2 15.528 0.679756 8.33225 
51 2 17.8467 2.29745 10.5609 
34 1 0.565376 0.908648 9.88347 
49 1 16.9187 2.49995 10.7091 
214 1 1.77632 6.45596 11.3864 
215 2 2.43624 7.15481 11.7508 
216 2 2.15214 5.59094 11.5857 
275 2 2.97081 5.53133 9.60983 
84 2 18.6126 5.82031 0.161053 
277 1 3.86134 7.73078 12.2694 
85 1 5.58153 7.20947 8.74014 
278 2 4.28886 7.04997 11.6256 
58 1 5.41674 5.93241 11.1867 
60 2 5.62873 6.28743 10.256 
59 2 5.23431 4.96342 11.171 
122 2 7.3284 4.24181 8.31029 
105 2 9.35289 4.21905 9.77579 
104 2 10.2156 5.08029 8.84217 
208 1 10.9231 6.31669 12.3585 
103 1 10.1544 4.76419 9.75878 
210 2 10.0804 6.11694 11.9284 
209 2 11.5287 5.56302 11.9727 
19 1 12.4265 4.40997 11.1987 
20 2 11.6708 4.36559 10.548 
69 2 11.5456 7.68132 11.5367 
252 2 13.6655 6.21114 9.31427 
250 1 14.0802 6.85401 9.87172 
251 2 13.4077 7.46344 10.1286 
80 2 14.8783 6.11657 11.7422 
67 1 11.8739 8.3709 10.867 
83 2 17.9549 4.47091 12.0956 
79 1 15.4002 6.2681 0.116469 
82 1 17.8812 5.41479 12.0912 
81 2 16.3061 5.93111 12.424 
233 2 17.9773 7.88799 9.73164 
234 2 0.61816 7.49543 10.3418 
279 2 4.04697 8.61877 11.8815 
4 1 2.50708 11.7065 0.152908 
61 1 1.36813 9.40849 7.61453 
66 2 2.46366 10.623 11.2357 
65 2 1.82515 9.43164 10.5155 
64 1 2.65486 9.87082 10.6719 
63 2 0.950557 8.99418 8.39561 
62 2 1.04144 10.3441 7.65515 
86 2 5.30674 8.19654 8.71453 
160 1 4.74379 9.74899 8.87989 
161 2 3.93213 9.84654 9.40769 
72 2 5.9873 10.8938 10.416 
70 1 6.75655 11.2585 10.8832 
71 2 6.9078 10.6984 11.7286 
16 1 10.1591 8.73944 8.87616 
108 2 8.01649 11.2197 9.58582 
106 1 8.62416 11.2163 8.83721 
107 2 8.93847 10.2679 8.84616 
18 2 10.7061 8.7403 9.72316 
112 1 12.7293 10.7128 11.9346 
68 2 12.3379 9.1062 11.3314 
282 2 12.489 11.0636 8.9489 
281 2 13.6409 12.0163 9.21644 
280 1 12.7313 11.8277 9.5308 
113 2 12.979 11.067 11.0326 
36 2 -0.0826425 0.0952148 10.1146 
150 2 17.1007 11.0591 11.3078 
232 1 0.113842 8.3028 9.97935 
270 2 16.1548 12.1507 9.39615 
149 2 17.6094 10.3997 9.99412 
148 1 17.2553 11.2323 10.3449 