LAMMPS (29 Sep 2021 - Update 3)
OMP_NUM_THREADS environment is not set. Defaulting to 1 thread. (src/comm.cpp:98)
  using 1 OpenMP thread(s) per MPI task
Loading plugin: deepmd pair style v2.0 by Han Wang
Loading plugin: compute deeptensor/atom v2.0 by Han Wang
Loading plugin: fix dplr v2.0 by Han Wang
Reading data file ...
  orthogonal box = (-0.033500871 -0.022333914 -0.022333914) to (18.633502 12.422334 12.422334)
  1 by 1 by 1 MPI processor grid
  reading atoms ...
  288 atoms
  read_data CPU = 0.003 seconds
Summary of lammps deepmd module ...
  >>> Info of deepmd-kit:
  installed to:       /scratch/gpfs/yifanl/usr/licensed/anaconda3/2020.7/dp211
  source:             v2.1.1-1-gdff6aa33
  source branch:       HEAD
  source commit:      dff6aa33
  source commit at:   2022-05-21 20:41:28 -0400
  surpport model ver.:1.1 
  build float prec:   double
  build with tf inc:  /scratch/gpfs/yifanl/usr/licensed/anaconda3/2020.7/dp211/include;/scratch/gpfs/yifanl/usr/licensed/anaconda3/2020.7/dp211/include
  build with tf lib:  /scratch/gpfs/yifanl/usr/licensed/anaconda3/2020.7/dp211/lib/libtensorflow_cc.so;/scratch/gpfs/yifanl/usr/licensed/anaconda3/2020.7/dp211/lib/libtensorflow_framework.so
  set tf intra_op_parallelism_threads: 0
  set tf inter_op_parallelism_threads: 0
  >>> Info of lammps module:
  use deepmd-kit at:  /scratch/gpfs/yifanl/usr/licensed/anaconda3/2020.7/dp211  >>> Info of model(s):
  using   1 model(s): frozen_model.pb 
  rcut in model:      6
  ntypes in model:    2

CITE-CITE-CITE-CITE-CITE-CITE-CITE-CITE-CITE-CITE-CITE-CITE-CITE

Your simulation uses code contributions which should be cited:
- USER-DEEPMD package:
The log file lists these citations in BibTeX format.

CITE-CITE-CITE-CITE-CITE-CITE-CITE-CITE-CITE-CITE-CITE-CITE-CITE

Neighbor list info ...
  update every 1 steps, delay 10 steps, check yes
  max neighbors/atom: 2000, page size: 100000
  master list distance cutoff = 7
  ghost atom cutoff = 7
  binsize = 3.5, bins = 6 4 4
  1 neighbor lists, perpetual/occasional/extra = 1 0 0
  (1) pair deepmd, perpetual
      attributes: full, newton on
      pair build: full/bin/atomonly
      stencil: full/bin/3d
      bin: standard
Setting up Verlet run ...
  Unit style    : metal
  Current step  : 0
  Time step     : 0.0005
Per MPI rank memory allocation (min/avg/max) = 3.145 | 3.145 | 3.145 Mbytes
Step Temp PotEng KinEng TotEng Press Volume Density Lx Ly Lz 
       0          330   -1408.3082    12.242228    -1396.066    24315.315    2890.9543    1.1036584    18.667002    12.444668    12.444668 
     100      353.293   -1409.7214    13.106344    -1396.615    323.97805    2955.1639    1.0796782    18.804193    12.536129    12.536129 
     200    314.64361    -1409.518    11.672542   -1397.8454    2023.7658    3098.4921     1.029735    19.103413    12.735609    12.735609 
     300    287.17109   -1409.0412    10.653376   -1398.3878   -5635.3053    3208.1368   0.99454172    19.326141    12.884094    12.884094 
     400    315.02786   -1408.6276    11.686797   -1396.9408    -1602.241    3244.7531   0.98331856    19.399389    12.932926    12.932926 
     500    346.79669    -1409.153    12.865346   -1396.2877   -2000.2632    3243.3845   0.98373346    19.396662    12.931108    12.931108 
     600    301.76489   -1408.0328    11.194772    -1396.838    3378.8961    3243.3936   0.98373071     19.39668     12.93112     12.93112 
     700    316.57778   -1409.1235    11.744295   -1397.3792   -283.50188     3270.622   0.97554102    19.450807    12.967205    12.967205 
     800     303.4987   -1408.1669    11.259092   -1396.9078    1220.2781     3299.623   0.96696681    19.508129    13.005419    13.005419 
     900    342.58481   -1408.1294    12.709095   -1395.4204    -2144.167    3314.1692   0.96272268    19.536754    13.024502    13.024502 
    1000    329.07596   -1407.3008    12.207949   -1395.0929   -3494.5676    3307.3218   0.96471588    19.523289    13.015526    13.015526 
    1100    369.54574    -1408.959    13.709283   -1395.2497    2387.8237    3295.0454   0.96831015    19.499103    12.999402    12.999402 
    1200    317.51366   -1408.3573    11.779014   -1396.5782    4482.3549    3275.5967   0.97405944    19.460664    12.973776    12.973776 
    1300     306.8611   -1408.5712    11.383829   -1397.1873   -419.68586    3253.1951   0.98076685    19.416199    12.944132    12.944132 
    1400    314.48357   -1408.9793    11.666605   -1397.3127    312.22526    3234.8703   0.98632268    19.379674    12.919782    12.919782 
    1500    316.37796   -1409.0452    11.736883   -1397.3083    4112.3222    3243.4219   0.98372213    19.396736    12.931157    12.931157 
    1600    331.17213   -1409.5869    12.285712   -1397.3012    2946.5817     3291.249   0.96942708    19.491612    12.994408    12.994408 
    1700    325.43223   -1408.0932    12.072775   -1396.0204    3695.8684    3344.3982   0.95402093    19.595973    13.063982    13.063982 
    1800    348.05203   -1408.0823    12.911916   -1395.1704   -3781.7014     3374.807    0.9454247    19.655186    13.103457    13.103457 
    1900    331.82033   -1407.5883    12.309758   -1395.2786   -20.996768    3375.8555   0.94513107    19.657221    13.104814    13.104814 
    2000    317.44863   -1408.1829    11.776602   -1396.4063   -5378.4346    3344.0933   0.95410793    19.595377    13.063585    13.063585 
    2100    330.04717   -1409.5641    12.243978   -1397.3201   -3662.9904    3297.6021   0.96755939    19.504145    13.002764    13.002764 
    2200    332.23137   -1409.9099    12.325007   -1397.5849    5450.6534    3252.2555    0.9810502    19.414329    12.942886    12.942886 
    2300    324.79432    -1409.875     12.04911   -1397.8259   -2523.0403    3231.1394   0.98746155    19.372221    12.914814    12.914814 
    2400    310.38603   -1409.2492    11.514596   -1397.7346   -954.43992     3251.506   0.98127634    19.412838    12.941892    12.941892 
    2500     356.3766   -1409.9083    13.220739   -1396.6876    180.97779    3289.2782   0.97000792    19.487721    12.991814    12.991814 
    2600    342.15823   -1407.8832     12.69327     -1395.19    62.921326    3324.9729   0.95959455     19.55796     13.03864     13.03864 
    2700    373.67458    -1409.099    13.862453   -1395.2365    3173.8829    3369.6371   0.94687524    19.645144    13.096763    13.096763 
    2800    297.87019    -1407.661    11.050288   -1396.6107   -1167.9422    3387.7672    0.9418079    19.680314    13.120209    13.120209 
    2900     321.8201   -1408.8717    11.938773    -1396.933    2036.7308    3366.8549   0.94765767    19.639736    13.093157    13.093157 
    3000    347.31776   -1409.9805    12.884677   -1397.0959    2024.5895     3329.725   0.95822505    19.567273    13.044848    13.044848 
    3100    324.53816   -1409.7076    12.039607    -1397.668   -704.30873    3289.6365   0.96990227    19.488428    12.992285    12.992285 
    3200    322.43481   -1410.2805    11.961577   -1398.3189   -3158.4115    3254.6167   0.98033845    19.419027    12.946018    12.946018 
    3300    334.98547   -1411.0971    12.427178   -1398.6699    2406.3564    3226.8917   0.98876137    19.363728    12.909152    12.909152 
    3400    300.24877   -1410.8765    11.138527    -1399.738     1822.937    3207.2467   0.99481773    19.324353    12.882902    12.882902 
    3500     294.2961   -1411.0838    10.917697   -1400.1661    4919.9207     3214.608   0.99253965    19.339126    12.892751    12.892751 
    3600      303.003   -1410.2736    11.240703   -1399.0329   -3228.5358    3254.6003   0.98034338    19.418994    12.945996    12.945996 
    3700    340.80851   -1410.5406    12.643199   -1397.8974   -4248.7651    3311.8786   0.96338855    19.532252    13.021501    13.021501 
    3800     322.1175   -1409.3372    11.949806   -1397.3874    3722.1318    3372.2828   0.94613237    19.650284    13.100189    13.100189 
    3900    340.93292   -1409.3929    12.647814   -1396.7451    -1821.032    3416.6507   0.93384608    19.736086    13.157391    13.157391 
    4000     346.3717   -1408.9095     12.84958   -1396.0599   -1461.2813    3409.7615   0.93573286    19.722812    13.148542    13.148542 
    4100    374.44432    -1408.889    13.891008    -1394.998   -147.83691     3384.353   0.94275802    19.673701      13.1158      13.1158 
    4200    330.43246   -1407.9189    12.258272   -1395.6606    1569.8831    3358.9914   0.94987617    19.624434    13.082956    13.082956 
    4300    336.97932   -1409.7305    12.501145   -1397.2294   -1296.9384    3340.2156   0.95521556    19.587801    13.058534    13.058534 
    4400    335.51555   -1410.2809    12.446842    -1397.834    324.08858    3311.2569   0.96356941    19.531029    13.020686    13.020686 
    4500    333.55566   -1410.7181    12.374135    -1398.344   -1320.9478    3291.0747   0.96947843    19.491268    12.994178    12.994178 
    4600    310.37386   -1410.9182    11.514144    -1399.404   -933.40288    3272.0747   0.97510791    19.453686    12.969124    12.969124 
    4700    317.06005   -1411.3229    11.762186   -1399.5607    1594.1179    3254.4297    0.9803948    19.418655     12.94577     12.94577 
    4800    312.71016   -1409.5844    11.600816   -1397.9836    1088.6458    3253.2918    0.9807377    19.416391    12.944261    12.944261 
    4900    325.73655   -1409.4879    12.084064   -1397.4038    5829.1437    3285.9667   0.97098546    19.481179    12.987452    12.987452 
    5000     331.8354   -1409.8514    12.310317   -1397.5411   -3904.7605    3353.5258    0.9514243    19.613784    13.075856    13.075856 
    5100    345.86261   -1410.9122    12.830694   -1398.0815    360.15571    3401.6907   0.93795296    19.707239    13.138159    13.138159 
    5200    284.50199   -1409.5439    10.554358   -1398.9896   -915.52617     3411.849   0.93516036    19.726836    13.151224    13.151224 
    5300    321.99604   -1410.2316      11.9453   -1398.2863   -4350.4302    3407.2237   0.93642984    19.717918    13.145279    13.145279 
    5400    332.73191   -1409.2878    12.343576   -1396.9442    2944.5354    3389.5438   0.94131427    19.683754    13.122502    13.122502 
    5500    338.70259   -1409.5941    12.565074    -1397.029   -3427.9925    3376.2482   0.94502114    19.657983    13.105322    13.105322 
    5600    322.16175   -1409.6059    11.951447   -1397.6545   -3309.4947    3350.0354   0.95241559    19.606977    13.071318    13.071318 
    5700    338.15081   -1410.5344    12.544604   -1397.9898   -626.81239    3316.7352   0.96197789    19.541794    13.027863    13.027863 
    5800     334.2362   -1411.6744    12.399381    -1399.275    5262.9379    3294.5495   0.96845589    19.498125     12.99875     12.99875 
    5900    320.83361   -1411.9354    11.902177   -1400.0332    847.82038    3290.1635   0.96974692    19.489469    12.992979    12.992979 
    6000    307.88603   -1411.2468    11.421852   -1399.8249   -635.88352    3293.6142    0.9687309     19.49628     12.99752     12.99752 
    6100    314.54022   -1410.7288    11.668707     -1399.06   -925.16669    3300.9836   0.96656824     19.51081    13.007206    13.007206 
    6200    315.68774   -1410.4054    11.711277   -1398.6942    535.93377    3310.4333   0.96380915     19.52941    13.019607    13.019607 
    6300    331.04309   -1410.3183    12.280924   -1398.0374    595.90788    3318.1359   0.96157179    19.544545    13.029697    13.029697 
    6400    364.56695   -1411.4074    13.524581   -1397.8828    628.05602    3314.4519   0.96264057    19.537309    13.024873    13.024873 
    6500    301.38511   -1410.3997    11.180683    -1399.219   -1884.2113    3300.6405   0.96666872    19.510134    13.006756    13.006756 
    6600    327.56522   -1411.9079    12.151904    -1399.756    5333.7828    3306.2398   0.96503162     19.52116    13.014107    13.014107 
    6700    300.05198    -1410.398    11.131227   -1399.2668   -2704.3459    3329.8182   0.95819823    19.567455     13.04497     13.04497 
    6800    331.81077   -1410.6008    12.309403   -1398.2914   -784.84276    3374.5995   0.94548283    19.654783    13.103189    13.103189 
    6900    335.18045   -1410.4438    12.434411   -1398.0094   -1320.2751    3408.0724   0.93619663    19.719555     13.14637     13.14637 
    7000    325.42356   -1410.1345    12.072453    -1398.062    3685.2834    3422.5503   0.93223638    19.747439    13.164959    13.164959 
    7100    348.12142   -1410.2911    12.914491   -1397.3766   -1668.7303     3408.487   0.93608275    19.720355    13.146903    13.146903 
    7200     339.5678   -1409.3971    12.597172      -1396.8   -187.24825    3353.1495   0.95153106     19.61305    13.075367    13.075367 
    7300    328.46053   -1409.7587    12.185117   -1397.5736    4044.5306    3303.6513   0.96578775    19.516064    13.010709    13.010709 
    7400    318.15953   -1410.6434    11.802974   -1398.8405    4525.9571    3279.6084   0.97286795    19.468605     12.97907     12.97907 
    7500    320.01448   -1411.0115    11.871789   -1399.1397   -5434.9511    3270.0737   0.97570459     19.44972     12.96648     12.96648 
    7600    325.36328   -1410.9924    12.070217   -1398.9222    1537.9058    3267.6725   0.97642157    19.444958    12.963305    12.963305 
    7700    326.31311   -1410.0579    12.105453   -1397.9524   -3351.8251    3278.4591   0.97320899    19.466331    12.977554    12.977554 
    7800    365.58307   -1410.2678    13.562277   -1396.7056    3241.3512    3316.7352   0.96197789    19.541794    13.027863    13.027863 
    7900    339.36405   -1409.8829    12.589613   -1397.2933   -768.34253    3369.0611   0.94703711    19.644025    13.096016    13.096016 
    8000    325.00512   -1410.7814     12.05693   -1398.7245   -5662.4394    3389.6537   0.94128373    19.683967    13.122644    13.122644 
    8100    335.31287   -1410.9406    12.439323   -1398.5013    805.32976    3360.8222   0.94935874    19.627999    13.085332    13.085332 
    8200    324.29903   -1410.1466    12.030736   -1398.1159    1003.0995    3313.1726   0.96301229    19.534795    13.023197    13.023197 
    8300    332.80918   -1409.8778    12.346442   -1397.5314    1657.0953     3267.909   0.97635089    19.445427    12.963618    12.963618 
    8400    346.42576   -1409.4033    12.851586   -1396.5517    1699.7164    3249.5789   0.98185828    19.409002    12.939334    12.939334 
    8500    353.35999    -1410.158    13.108829   -1397.0492    5674.5053    3266.6959   0.97671349    19.443021    12.962014    12.962014 
    8600    325.85908   -1410.6944     12.08861   -1398.6057    4546.8429    3316.0488   0.96217701    19.540446    13.026964    13.026964 
    8700    310.46019   -1409.9821    11.517347   -1398.4647   -1989.1875    3363.9325   0.94848094    19.634052    13.089368    13.089368 
    8800    315.90878   -1409.0907    11.719477   -1397.3712   -2705.2194    3367.3801   0.94750988    19.640757    13.093838    13.093838 
    8900    347.09786   -1409.8683    12.876519   -1396.9918     738.4548    3330.6068   0.95797136       19.569       13.046       13.046 
    9000    345.69594    -1410.331    12.824511   -1397.5065   -2838.3445    3283.3838    0.9717493    19.476073    12.984049    12.984049 
    9100    330.68379    -1410.224    12.267595   -1397.9564   -868.30293    3261.8309   0.97817024    19.433364    12.955576    12.955576 
    9200    329.30263   -1410.6758    12.216358   -1398.4594    2527.6927    3276.9865   0.97364635    19.463416     12.97561     12.97561 
    9300     302.9639   -1409.5713    11.239252   -1398.3321    986.72179    3304.4613     0.965551    19.517659    13.011773    13.011773 
    9400    346.32353   -1408.9496    12.847793   -1396.1018    2866.1295    3323.1993   0.96010669    19.554482    13.036321    13.036321 
    9500    364.11859   -1410.0549    13.507948   -1396.5469   -2421.1392    3346.8963   0.95330886    19.600851    13.067234    13.067234 
    9600    315.51647   -1409.4434    11.704923   -1397.7385    1010.8438     3373.513   0.94578733    19.652673    13.101782    13.101782 
    9700    327.36167   -1410.2446    12.144353   -1398.1002   -3160.0529    3386.7615   0.94208756    19.678367    13.118911    13.118911 
    9800    327.80606   -1410.2246    12.160838   -1398.0638    2649.8177    3372.0917   0.94618599    19.649913    13.099942    13.099942 
    9900    322.01558   -1409.5584    11.946025   -1397.6123   -7189.2749    3350.4043   0.95231071    19.607697    13.071798    13.071798 
   10000    350.29192   -1410.6309    12.995011   -1397.6359    1634.2945    3328.3693   0.95861535    19.564617    13.043078    13.043078 
Loop time of 99.9412 on 1 procs for 10000 steps with 288 atoms

Performance: 4.323 ns/day, 5.552 hours/ns, 100.059 timesteps/s
86.2% CPU use with 1 MPI tasks x 1 OpenMP threads

MPI task timing breakdown:
Section |  min time  |  avg time  |  max time  |%varavg| %total
---------------------------------------------------------------
Pair    | 99.151     | 99.151     | 99.151     |   0.0 | 99.21
Neigh   | 0.50199    | 0.50199    | 0.50199    |   0.0 |  0.50
Comm    | 0.1009     | 0.1009     | 0.1009     |   0.0 |  0.10
Output  | 0.016279   | 0.016279   | 0.016279   |   0.0 |  0.02
Modify  | 0.1404     | 0.1404     | 0.1404     |   0.0 |  0.14
Other   |            | 0.03104    |            |       |  0.03

Nlocal:        288.000 ave         288 max         288 min
Histogram: 1 0 0 0 0 0 0 0 0 0
Nghost:        1812.00 ave        1812 max        1812 min
Histogram: 1 0 0 0 0 0 0 0 0 0
Neighs:         0.00000 ave           0 max           0 min
Histogram: 1 0 0 0 0 0 0 0 0 0
FullNghs:      35268.0 ave       35268 max       35268 min
Histogram: 1 0 0 0 0 0 0 0 0 0

Total # of neighbors = 35268
Ave neighs/atom = 122.45833
Neighbor list builds = 353
Dangerous builds = 0
Setting up Verlet run ...
  Unit style    : metal
  Current step  : 0
  Time step     : 0.0005
Per MPI rank memory allocation (min/avg/max) = 4.406 | 4.406 | 4.406 Mbytes
Step Temp PotEng KinEng TotEng Press Volume Density Lx Ly Lz 
       0    350.29192   -1410.6309    12.995011   -1397.6359    1634.2945    3328.3693   0.95861535    19.564617    13.043078    13.043078 
     100    357.29753    -1411.231    13.254903   -1397.9761    4898.6505    3341.3263   0.95489802    19.589972    13.059981    13.059981 
     200    310.52945   -1411.0134    11.519917   -1399.4935    -3073.238    3388.1232   0.94170893    19.681004    13.120669    13.120669 
     300    316.64144   -1411.3935    11.746657   -1399.6468    1843.1985     3433.259   0.92932863    19.768014    13.178676    13.178676 
     400    315.01338   -1410.7024     11.68626   -1399.0162   -6405.9505    3418.7233   0.93327994    19.740076    13.160051    13.160051 
     500    338.47735   -1410.7961    12.556718   -1398.2394    3373.1771    3347.7659   0.95306123    19.602548    13.068366    13.068366 
     600    344.24119   -1410.7611    12.770543   -1397.9906   -616.75098    3278.3268   0.97324829    19.466069    12.977379    12.977379 
     700    325.28267   -1410.3672    12.067226      -1398.3    3745.1432    3247.3405   0.98253507    19.404544    12.936363    12.936363 
     800      318.782   -1410.5778    11.826067   -1398.7517    6801.9228    3243.9833   0.98355188    19.397855    12.931903    12.931903 
     900    321.64596   -1411.1651    11.932313   -1399.2328   -824.50792     3254.984   0.98022784    19.419757    12.946505    12.946505 
    1000    326.04066   -1410.8293    12.095346    -1398.734     -2255.62    3281.2256   0.97238847    19.471805    12.981203    12.981203 
    1100     353.2178   -1410.8434    13.103554   -1397.7399    117.07887    3312.9156     0.963087     19.53429     13.02286     13.02286 
    1200    344.30344    -1410.735    12.772853   -1397.9622   -3751.0315    3343.9748   0.95414173    19.595146    13.063431    13.063431 
    1300    295.08271   -1409.9352    10.946878   -1398.9883   -1471.1881    3362.9241   0.94876537     19.63209     13.08806     13.08806 
    1400    331.66567   -1411.5101    12.304021   -1399.2061    3023.6615    3354.9047   0.95103326    19.616472    13.077648    13.077648 
    1500    336.39572   -1410.1336    12.479494   -1397.6541   -2712.6805    3326.0352   0.95928807    19.560042    13.040028    13.040028 
    1600    353.23789   -1410.2188      13.1043   -1397.1145    180.14012    3304.4055    0.9655673    19.517549      13.0117      13.0117 
    1700    361.62112   -1411.5798    13.415298   -1398.1645   -5306.2946    3310.7796   0.96370832    19.530091    13.020061    13.020061 
    1800    305.40217   -1410.4027    11.329706    -1399.073    4078.1568      3334.34   0.95689879    19.576309    13.050872    13.050872 
    1900    316.50117     -1410.75    11.741453   -1399.0086   -1704.1348    3358.8281   0.94992236    19.624116    13.082744    13.082744 
    2000    353.13833    -1411.598    13.100606   -1398.4974    3489.3124    3378.7666   0.94431674     19.66287     13.10858     13.10858 
    2100    360.99507   -1410.6299    13.392073   -1397.2378    -1315.061    3398.5802   0.93881142     19.70123    13.134154    13.134154 
    2200    338.16837   -1408.6481    12.545256   -1396.1028   -4259.8302    3400.6391   0.93824301    19.705208    13.136805    13.136805 
    2300    332.34244   -1408.6012    12.329127    -1396.272   -347.52578    3396.8742   0.93928292    19.697933    13.131955    13.131955 
    2400    322.51621   -1410.3775    11.964597   -1398.4129    1988.4653     3392.568   0.94047514    19.689606    13.126404    13.126404 
    2500     311.3845   -1410.2479    11.551637   -1398.6962   -4279.1348    3371.3264   0.94640077    19.648426    13.098951    13.098951 
    2600    344.75047   -1411.1565    12.789436   -1398.3671    1509.6149    3355.7279   0.95079996    19.618076    13.078717    13.078717 
    2700    331.64188     -1410.64    12.303138   -1398.3369    4456.2867    3363.9161   0.94848559     19.63402    13.089346    13.089346 
    2800    329.80998   -1410.4458    12.235179   -1398.2106   -2663.9218    3374.7312   0.94544593    19.655039    13.103359    13.103359 
    2900    343.14108    -1410.059    12.729731   -1397.3293    983.00127    3358.8575   0.94991405    19.624173    13.082782    13.082782 
    3000    347.71028   -1409.3844    12.899238   -1396.4851    3946.2154     3359.918   0.94961422    19.626238    13.084159    13.084159 
    3100    336.67734   -1409.1818    12.489942   -1396.6919    856.47634    3397.8758   0.93900605    19.699869    13.133246    13.133246 
    3200    322.37525   -1410.3049    11.959368   -1398.3456   -2703.8037    3427.0962   0.93099981    19.756178    13.170786    13.170786 
    3300    328.52963   -1410.6005    12.187681   -1398.4128    923.11619     3449.724    0.9248931    19.799564    13.199709    13.199709 
    3400    317.09895    -1409.762    11.763629   -1397.9984   -2564.2564    3454.3959   0.92364223    19.808498    13.205665    13.205665 
    3500     349.6952   -1409.8702    12.972874   -1396.8973   -643.80235    3449.9085   0.92484362    19.799917    13.199945    13.199945 
    3600    340.57968   -1409.5727     12.63471    -1396.938   -3926.0715    3448.0973   0.92532942    19.796451    13.197634    13.197634 
    3700    335.95083   -1409.9554     12.46299   -1397.4924   -2238.3761    3424.6535   0.93166387    19.751483    13.167656    13.167656 
    3800    308.28538   -1409.1426    11.436667    -1397.706    1986.4542    3388.9354   0.94148324    19.682576    13.121717    13.121717 
    3900    329.60101   -1409.9417    12.227427   -1397.7143   -910.40607    3361.2775   0.94923013    19.628885    13.085923    13.085923 
    4000    321.95825   -1409.2863    11.943898   -1397.3424    1663.3528    3336.1884   0.95636862    19.579925    13.053283    13.053283 
    4100    336.29271   -1408.7059    12.475673   -1396.2302     2334.336     3314.042   0.96275966    19.536504    13.024336    13.024336 
    4200    339.67814   -1408.0725    12.601265   -1395.4712   -2357.3072    3313.4306    0.9629373    19.535302    13.023535    13.023535 
    4300    363.70083   -1409.8196     13.49245   -1396.3272     1221.112    3341.6315   0.95481083    19.590568    13.060379    13.060379 
    4400    316.57095   -1409.3929    11.744042   -1397.6489   -3495.3943    3373.6674   0.94574407    19.652973    13.101982    13.101982 
    4500    318.71562   -1409.9431    11.823604   -1398.1195   -1876.6202     3388.836   0.94151086    19.682384    13.121589    13.121589 
    4600    330.72179   -1410.4819    12.269005   -1398.2129    -280.3089    3395.2699   0.93972673    19.694832    13.129888    13.129888 
    4700    310.86973   -1409.5854     11.53254   -1398.0529    1137.3034     3392.238   0.94056664    19.688968    13.125978    13.125978 
    4800    322.99553   -1408.9102    11.982379   -1396.9278    2592.0369     3390.842   0.94095388    19.686266    13.124178    13.124178 
    4900    332.24521   -1408.7443     12.32552   -1396.4188   -4039.8067     3406.771   0.93655427    19.717045    13.144696    13.144696 
    5000    341.03321   -1409.0968    12.651534   -1396.4453   -748.22355    3423.1688   0.93206795    19.748629    13.165752    13.165752 
    5100      320.772   -1409.4094    11.899891   -1397.5095    30.160054    3436.6108   0.92842224    19.774444    13.182963    13.182963 
    5200    319.87373   -1410.1061    11.866567   -1398.2395    114.06656    3446.3196   0.92580674    19.793049    13.195366    13.195366 
    5300    315.34231   -1409.3992    11.698462   -1397.7007   -2043.3444    3448.9793    0.9250928    19.798139    13.198759    13.198759 
    5400    349.01163   -1409.5104    12.947515   -1396.5629    672.54565    3435.5877   0.92869872    19.772482    13.181655    13.181655 
    5500    331.04429   -1409.0401    12.280969   -1396.7591    259.87509    3416.5522   0.93387301    19.735897    13.157264    13.157264 
    5600    343.45013   -1409.9329    12.741197   -1397.1917    3889.0856    3404.5458    0.9371664    19.712751    13.141834    13.141834 
    5700     321.8544   -1409.9475    11.940046   -1398.0075   -708.21805    3395.7205   0.93960205    19.695703    13.130469    13.130469 
    5800    324.33398   -1410.3589    12.032032   -1398.3268    1152.0007    3408.2323   0.93615271    19.719863    13.146576    13.146576 
    5900     334.3864   -1410.5046    12.404953   -1398.0997   -3407.6326    3426.8154    0.9310761    19.755639    13.170426    13.170426 
    6000    327.53574   -1409.7293     12.15081   -1397.5785    712.01472    3433.8441   0.92917028    19.769136    13.179424    13.179424 
    6100    351.78484    -1409.332    13.050395   -1396.2816    -1102.934     3419.528   0.93306032    19.741625    13.161083    13.161083 
    6200     335.4728   -1408.5956    12.445256   -1396.1503    2734.9696     3404.809   0.93709396    19.713259    13.142172    13.142172 
    6300    327.80792   -1409.5792    12.160907   -1397.4183    568.98824    3413.4816   0.93471309    19.729982    13.153321    13.153321 
    6400    331.98157   -1410.4527     12.31574   -1398.1369    -2190.932    3414.1487   0.93453044    19.731268    13.154178    13.154178 
    6500    333.30108   -1410.5935    12.364691   -1398.2288   -1650.2866    3407.9922   0.93621865      19.7194    13.146267    13.146267 
    6600    314.44164    -1409.841     11.66505   -1398.1759   -2082.1503    3407.4538   0.93636658    19.718362    13.145575    13.145575 
    6700    345.30651   -1409.4681    12.810064   -1396.6581    39.050343    3408.1966   0.93616252    19.719795     13.14653     13.14653 
    6800    373.40021   -1409.9577    13.852275   -1396.1054   -1986.5123    3396.5311   0.93937779     19.69727    13.131513    13.131513 
    6900    338.37142   -1409.6514    12.552789   -1397.0987    -517.8759    3378.1006   0.94450294    19.661578    13.107718    13.107718 
    7000    305.81295   -1409.0987    11.344945   -1397.7538    245.37989    3359.0191   0.94986834    19.624488    13.082992    13.082992 
    7100    353.33545   -1410.9141    13.107919   -1397.8062    3050.0452    3334.0504    0.9569819    19.575742    13.050494    13.050494 
    7200    346.28286   -1411.6343    12.846284   -1398.7881    1127.1524    3311.2422   0.96357372       19.531    13.020667    13.020667 
    7300    313.54365   -1411.6388    11.631736   -1400.0071   -4454.4355     3308.734   0.96430415    19.526068    13.017378    13.017378 
    7400    329.66237   -1411.9824    12.229703   -1399.7527   -7.0693505    3305.7049   0.96518776    19.520107    13.013405    13.013405 
    7500    331.01654   -1411.5606     12.27994   -1399.2807    1804.3169    3302.1994   0.96621235    19.513205    13.008803    13.008803 
    7600    329.80454   -1410.6301    12.234977   -1398.3951   -4837.8323    3294.5608   0.96845258    19.498147    12.998765    12.998765 
    7700    322.62424   -1409.8055    11.968605   -1397.8369    3255.0069    3289.3893   0.96997515     19.48794     12.99196     12.99196 
    7800    337.00109   -1410.2074    12.501952   -1397.7055    1453.4644    3306.5132   0.96495183    19.521698    13.014465    13.014465 
    7900    324.10324   -1409.7085    12.023472   -1397.6851   -1706.8863    3342.1305   0.95466825    19.591543    13.061029    13.061029 
    8000    343.00379   -1410.3355    12.724639   -1397.6109    109.99051    3370.7166   0.94657198    19.647242    13.098161    13.098161 
    8100    336.08321     -1410.43    12.467901   -1397.9621   -2565.7598    3368.1814   0.94728446    19.642315    13.094876    13.094876 
    8200    315.78136   -1410.6241     11.71475   -1398.9093    2809.8502    3353.6596   0.95138633    19.614045     13.07603     13.07603 
    8300    318.29235   -1411.1508    11.807902   -1399.3429    941.80724    3350.3864   0.95231579    19.607662    13.071774    13.071774 
    8400    344.61686   -1411.1223     12.78448   -1398.3378   -461.67471    3353.0015   0.95157305    19.612762    13.075175    13.075175 
    8500    355.93717   -1410.2837    13.204437   -1397.0792   -1115.9211      3349.52   0.95256212    19.605972    13.070648    13.070648 
    8600    324.66165   -1409.9157    12.044188   -1397.8715   -1303.3683    3331.8072   0.95762621    19.571351    13.047567    13.047567 
    8700    310.96075   -1410.3136    11.535917   -1398.7777    3879.3659    3306.8147   0.96486383    19.522292    13.014861    13.014861 
    8800    334.31018   -1410.9459    12.402126   -1398.5438    418.45494    3275.2763   0.97415474    19.460029    12.973353    12.973353 
    8900     361.2159   -1410.7501    13.400265   -1397.3499    2238.4675    3254.1387   0.98048245    19.418076    12.945384    12.945384 
    9000    350.44495   -1410.4008    13.000688   -1397.4001    35.038906    3271.0409   0.97541609    19.451637    12.967758    12.967758 
    9100    342.85548    -1410.815    12.719137   -1398.0959    -1859.412    3321.1688    0.9606937    19.550498    13.033665    13.033665 
    9200    317.06389    -1410.494    11.762329   -1398.7317    506.05138    3396.2759   0.93944839    19.696777    13.131184    13.131184 
    9300    318.10495    -1410.254     11.80095   -1398.4531   -4418.1557    3475.9187   0.91792306    19.849552    13.233035    13.233035 
    9400     341.9496   -1410.0876    12.685531    -1397.402    274.45295    3506.8485   0.90982713    19.908254    13.272169    13.272169 
    9500    353.39643   -1409.5665    13.110181   -1396.4563   -1320.6771    3499.7985   0.91165989    19.894904    13.263269    13.263269 
    9600    332.66653   -1409.9837     12.34115   -1397.6426   -4391.5268    3457.7716   0.92274051    19.814948    13.209965    13.209965 
    9700     327.6424   -1410.5715    12.154767   -1398.4167    183.63863    3382.3761   0.94330902    19.669869    13.113246    13.113246 
    9800    344.56737   -1410.9316    12.782644    -1398.149   -532.31629    3300.3974   0.96673992    19.509655    13.006436    13.006436 
    9900    345.80853   -1411.0299    12.828688   -1398.2012    4311.8624    3248.1113    0.9823019     19.40608    12.937386    12.937386 
   10000    335.36959   -1411.9509    12.441428   -1399.5094   -1956.8785    3238.4034   0.98524658    19.386727    12.924484    12.924484 
   10100    306.81579   -1411.2267    11.382148   -1399.8446   -4664.9346    3248.3077    0.9822425    19.406471    12.937647    12.937647 
   10200    321.94954   -1411.0651    11.943575   -1399.1216    6980.5548    3275.2814   0.97415321    19.460039     12.97336     12.97336 
   10300    355.41992   -1411.8379    13.185248   -1398.6527   -2429.6764    3303.3071   0.96588836    19.515387    13.010258    13.010258 
   10400    333.78835   -1411.5121    12.382767   -1399.1293    2366.9462    3335.3252   0.95661614    19.578236    13.052158    13.052158 
   10500     316.5033   -1411.0612    11.741532   -1399.3197    467.39675    3373.0262   0.94592385    19.651728    13.101152    13.101152 
   10600    320.29983   -1411.0586    11.882375   -1399.1762    971.81199    3385.0715    0.9425579    19.675093    13.116728    13.116728 
   10700    322.43482   -1410.5776    11.961578    -1398.616    1283.5916    3347.8502   0.95303725    19.602713    13.068475    13.068475 
   10800    339.08836   -1410.4101    12.579385   -1397.8307   -1282.8519    3299.3603   0.96704379    19.507611    13.005074    13.005074 
   10900    343.40329   -1410.8015    12.739459    -1398.062    27.460279     3283.573   0.97169332    19.476447    12.984298    12.984298 
   11000    324.54604   -1410.4385    12.039899   -1398.3986    3011.6031     3295.595   0.96814866    19.500187    13.000125    13.000125 
   11100    328.19108   -1411.0144    12.175122   -1398.8393     955.7409     3322.631   0.96027093    19.553367    13.035578    13.035578 
   11200    324.37241   -1411.2959    12.033458   -1399.2624   -494.54545    3354.0295   0.95128141    19.614766    13.076511    13.076511 
   11300    315.93185   -1410.9368    11.720333   -1399.2164       4817.4    3380.8694   0.94372943    19.666948    13.111299    13.111299 
   11400    308.47027   -1410.3107    11.443526   -1398.8672   -2718.7294    3397.3365   0.93915511    19.698827    13.132551    13.132551 
   11500    316.25339   -1409.8929    11.732261   -1398.1607    2531.2285    3393.6427   0.94017731    19.691685     13.12779     13.12779 
   11600    328.49232   -1409.7562    12.186297   -1397.5699   -912.21392    3382.4654   0.94328413    19.670042    13.113361    13.113361 
   11700    327.01561   -1410.0289    12.131515   -1397.8974     1429.231    3356.7635    0.9505066    19.620094    13.080063    13.080063 
   11800    312.86677   -1410.7786    11.606626    -1399.172    -3153.944    3326.8642   0.95904905    19.561667    13.041111    13.041111 
   11900    307.99342   -1411.3222    11.425836   -1399.8964    940.20739    3295.8086   0.96808593    19.500609    13.000406    13.000406 
   12000    339.52785   -1412.2533    12.595689   -1399.6576    3964.7691    3272.1182   0.97509493    19.453773    12.969182    12.969182 
   12100    316.53498   -1411.1768    11.742707   -1399.4341   -1286.9878    3270.9192   0.97545238    19.451396    12.967597    12.967597 
   12200    333.71121    -1411.191    12.379905   -1398.8111    5566.2463    3305.0171   0.96538861    19.518754    13.012502    13.012502 
   12300    357.52576    -1411.065    13.263369   -1397.8016   -527.13799    3364.5341   0.94831135    19.635222    13.090148    13.090148 
   12400     334.7733     -1410.63    12.419307   -1398.2107   -2894.2267    3407.3282   0.93640111     19.71812    13.145413    13.145413 
   12500    307.72037   -1410.1363    11.415706   -1398.7206   -2476.8075    3421.7047   0.93246676    19.745813    13.163875    13.163875 
   12600    337.73622   -1410.8033    12.529224    -1398.274   -3559.1662    3391.4671   0.94078043    19.687476    13.124984    13.124984 
   12700    353.34925   -1410.2227    13.108431   -1397.1142   -3545.3464    3320.8589   0.96078334     19.54989     13.03326     13.03326 
   12800    351.81351    -1409.919    13.051459   -1396.8676   -2217.3392    3261.6564   0.97822257    19.433018    12.955345    12.955345 
   12900      318.392   -1410.2495    11.811599   -1398.4379    4281.8409    3241.0395   0.98444525    19.391986     12.92799     12.92799 
   13000    301.51159   -1410.6084    11.185375   -1399.4231    1106.0776     3249.697   0.98182257    19.409237    12.939491    12.939491 
   13100    332.65406   -1411.7081    12.340688   -1399.3674   -1524.1598     3287.147   0.97063681    19.483511    12.989007    12.989007 
   13200    342.72332   -1411.5343    12.714234     -1398.82   -985.61671    3335.8101   0.95647707    19.579185     13.05279     13.05279 
   13300    347.70709   -1410.7195     12.89912   -1397.8204   -3764.0543    3379.5837   0.94408845    19.664455    13.109636    13.109636 
   13400    339.76221   -1409.4905    12.604383   -1396.8861    -4430.432    3400.8839   0.93817548    19.705681     13.13712     13.13712 
   13500     355.2871   -1408.7352    13.180321   -1395.5549   -3273.3044    3390.0412   0.94117615    19.684717    13.123144    13.123144 
   13600    355.90176   -1408.5838    13.203123   -1395.3806    -1487.037    3343.3298   0.95432581    19.593886    13.062591    13.062591 
   13700    332.84917   -1409.9474    12.347926   -1397.5994    1915.6268    3297.7443   0.96751767    19.504426     13.00295     13.00295 
   13800     357.2548    -1411.653    13.253318   -1398.3997    294.29826    3282.4786   0.97201727    19.474283    12.982855    12.982855 
   13900    322.41682   -1411.1329     11.96091    -1399.172   -2607.9607    3285.9404   0.97099322    19.481127    12.987418    12.987418 
   14000    320.21842   -1411.1887    11.879355   -1399.3093   -1057.1338     3295.312   0.96823181    19.499629    12.999753    12.999753 
   14100    338.55916   -1411.8384    12.559753   -1399.2786   -1536.4171    3317.0136   0.96189713    19.542341    13.028227    13.028227 
   14200    315.57048   -1411.2779    11.706927    -1399.571   -2399.1236    3358.5976   0.94998756    19.623667    13.082445    13.082445 
   14300    300.63788   -1411.1218    11.152962   -1399.9689    556.76409     3385.442   0.94245475    19.675811    13.117207    13.117207 
   14400    312.82208   -1411.4557    11.604968   -1399.8507   -1634.1732    3385.3933   0.94246831    19.675716    13.117144    13.117144 
   14500    345.74002   -1411.4053    12.826146   -1398.5792   -393.80342    3366.3963   0.94778678    19.638844    13.092563    13.092563 
   14600    312.30182   -1409.6846    11.585667    -1398.099    5339.8943     3337.189   0.95608186    19.581883    13.054588    13.054588 
   14700    336.20407   -1410.5362    12.472385   -1398.0638    2951.4455    3319.2799   0.96124039    19.546791    13.031194    13.031194 
   14800    343.66419   -1411.3464    12.749138   -1398.5973   -2196.1373    3306.8531   0.96485264    19.522367    13.014911    13.014911 
   14900    317.16176    -1411.875     11.76596    -1400.109    1493.5109    3305.8615   0.96514203    19.520416     13.01361     13.01361 
   15000    312.82682   -1411.6882    11.605143    -1400.083    118.38836    3317.6241   0.96172013     19.54354    13.029027    13.029027 
   15100    314.49494   -1410.5756    11.667027   -1398.9086    915.14349     3319.414   0.96120156    19.547054    13.031369    13.031369 
   15200    344.11232   -1411.1222    12.765762   -1398.3564    20.870642    3312.0929   0.96332621    19.532673    13.021782    13.021782 
   15300    343.95301    -1411.216    12.759852   -1398.4562    3959.8911     3317.314   0.96181004    19.542931    13.028621    13.028621 
   15400    309.45217   -1410.4801    11.479952   -1399.0001   -3259.9902    3319.6687    0.9611278    19.547554    13.031703    13.031703 
   15500    315.50666   -1412.0988    11.704559   -1400.3942    3893.2981    3309.6186   0.96404641    19.527808    13.018538    13.018538 
   15600    329.71957   -1413.0705    12.231825   -1400.8387    2134.5145    3298.1167   0.96740843     19.50516     13.00344     13.00344 
   15700    326.37884   -1412.4108    12.107892    -1400.303    591.90768    3294.3804    0.9685056    19.497792    12.998528    12.998528 
   15800    317.24044   -1411.3673    11.768879   -1399.5985   -298.92103    3302.4113   0.96615038    19.513622    13.009081    13.009081 
   15900    326.92923   -1411.3521     12.12831   -1399.2238    3627.6962    3322.5997   0.96027995    19.553305    13.035537    13.035537 
   16000    317.53326    -1410.378    11.779742   -1398.5983   -2774.2533    3348.7277   0.95278751    19.604425    13.069617    13.069617 
   16100    335.57496   -1410.4758    12.449046   -1398.0268    5170.2386    3361.4374   0.94918497    19.629196    13.086131    13.086131 
   16200    334.90218   -1409.9968    12.424088   -1397.5727   -4299.2236    3370.1448   0.94673257    19.646131     13.09742     13.09742 
   16300    342.40994   -1410.6378    12.702608   -1397.9352    5846.8393    3374.9017   0.94539816     19.65537     13.10358     13.10358 
   16400    308.82715   -1410.3692    11.456765   -1398.9124   -3223.0718    3360.7499   0.94937915    19.627858    13.085239    13.085239 
   16500    325.12712   -1411.0366    12.061456   -1398.9752     1436.912     3328.463   0.95858835      19.5648      13.0432      13.0432 
   16600    344.07653   -1411.9723    12.764435   -1399.2079    6567.0115    3304.9571   0.96540615    19.518635    13.012423    13.012423 
   16700    293.13719   -1411.0366    10.874704   -1400.1619    -3182.637    3303.1204   0.96594295    19.515019    13.010013    13.010013 
   16800    319.52167   -1411.7568    11.853507   -1399.9033    356.61276    3307.7252   0.96459824    19.524083    13.016055    13.016055 
   16900    329.48056   -1410.9356    12.222958   -1398.7126    1646.5787    3302.6932   0.96606791    19.514177    13.009452    13.009452 
   17000    320.82742   -1410.5741    11.901947   -1398.6721    3296.4131    3300.3272   0.96676049    19.509516    13.006344    13.006344 
   17100    326.31138   -1411.1035    12.105389   -1398.9981   -989.29502    3291.5088   0.96935057    19.492125     12.99475     12.99475 
   17200    338.57094   -1411.4473     12.56019   -1398.8871   -2858.5451    3282.1981   0.97210036    19.473728    12.982485    12.982485 
   17300    338.62264   -1411.4118    12.562108   -1398.8497    3077.5514    3273.5434   0.97467042    19.456597    12.971064    12.971064 
   17400    323.08224   -1410.5691    11.985595   -1398.5835   -4.2541829    3278.7851   0.97311223    19.466976    12.977984    12.977984 
   17500    335.80143   -1410.9945    12.457448   -1398.5371    4480.0998    3283.5425   0.97170233    19.476387    12.984258    12.984258 
   17600    330.11512   -1411.1642    12.246499   -1398.9177    -657.7378      3318.38   0.96150106    19.545024    13.030016    13.030016 
   17700    285.61703   -1411.0612    10.595724   -1400.4655     1395.002    3368.7645   0.94712051    19.643448    13.095632    13.095632 
   17800    304.49333   -1411.3757    11.295991   -1400.0798   -4512.7672    3384.6119    0.9426859    19.674202    13.116135    13.116135 
   17900    330.58279   -1411.0952    12.263848   -1398.8313    1623.9231    3358.1019   0.95012777    19.622702    13.081801    13.081801 
   18000    340.22066   -1411.2177    12.621391   -1398.5963    3450.5711      3328.32   0.95862955     19.56452    13.043013    13.043013 
   18100    326.77897   -1411.0057    12.122735    -1398.883    563.35878     3314.761   0.96255083    19.537916    13.025278    13.025278 
   18200    325.84724   -1411.7169    12.088171   -1399.6287   -5828.2398    3303.6026   0.96580197    19.515968    13.010646    13.010646 
   18300    300.67212   -1411.2297    11.154233   -1400.0755    3203.6748      3274.66   0.97433806    19.458809    12.972539    12.972539 
   18400    327.93924   -1411.1994    12.165779   -1399.0336    3909.3516    3264.6655   0.97732093    19.438992    12.959328    12.959328 
   18500     340.4828   -1410.5145    12.631116   -1397.8833   -2546.0407    3293.1936   0.96885464     19.49545    12.996967    12.996967 
   18600    338.65351   -1410.3605    12.563253   -1397.7972    3246.4174    3339.6226   0.95538518    19.586641    13.057761    13.057761 
   18700    328.80743   -1410.7875    12.197987   -1398.5895   -497.77752    3372.1199   0.94617807    19.649968    13.099979    13.099979 
   18800    337.81037   -1411.9423    12.531975   -1399.4103    3875.2517     3385.149   0.94253634    19.675243    13.116829    13.116829 
   18900    306.25988   -1410.8978    11.361525   -1399.5362    300.23221    3381.2785   0.94361523    19.667741    13.111828    13.111828 
   19000    335.80191   -1410.5524    12.457466   -1398.0949   -3329.4657    3372.1404   0.94617232    19.650008    13.100005    13.100005 
   19100    347.40852   -1410.6433    12.888044   -1397.7553   -346.93339    3370.4174   0.94665601     19.64666    13.097774    13.097774 
   19200    322.00317   -1410.7261    11.945565   -1398.7806   -3628.8436    3361.8528   0.94906771    19.630005     13.08667     13.08667 
   19300    313.00378   -1410.8405    11.611708   -1399.2288    2257.8617    3330.6597   0.95795613    19.569103    13.046069    13.046069 
   19400    309.39516   -1410.3589    11.477837   -1398.8811   -272.77563    3295.3119   0.96823184    19.499629    12.999753    12.999753 
   19500    337.78949   -1409.8406      12.5312   -1397.3094    1541.9256    3278.0919   0.97331801    19.465604    12.977069    12.977069 
   19600    359.22111   -1410.1471    13.326263   -1396.8209    4347.5733    3299.1477   0.96710611    19.507192    13.004795    13.004795 
   19700    334.50504    -1410.106    12.409355   -1397.6966   -1672.9932     3367.825    0.9473847    19.641622    13.094415    13.094415 
   19800    335.32437   -1410.7999     12.43975   -1398.3601    1130.9032    3432.3936   0.92956295    19.766352    13.177568    13.177568 
   19900    319.68587   -1410.4675    11.859598   -1398.6079    1163.1942     3454.355   0.92365316     19.80842    13.205613    13.205613 
   20000    316.30293   -1410.1995    11.734099   -1398.4654   -31.800792    3431.2834   0.92986371    19.764221    13.176147    13.176147 
Loop time of 199.864 on 1 procs for 20000 steps with 288 atoms

Performance: 4.323 ns/day, 5.552 hours/ns, 100.068 timesteps/s
86.4% CPU use with 1 MPI tasks x 1 OpenMP threads

MPI task timing breakdown:
Section |  min time  |  avg time  |  max time  |%varavg| %total
---------------------------------------------------------------
Pair    | 198.27     | 198.27     | 198.27     |   0.0 | 99.20
Neigh   | 0.98909    | 0.98909    | 0.98909    |   0.0 |  0.49
Comm    | 0.1998     | 0.1998     | 0.1998     |   0.0 |  0.10
Output  | 0.064287   | 0.064287   | 0.064287   |   0.0 |  0.03
Modify  | 0.27993    | 0.27993    | 0.27993    |   0.0 |  0.14
Other   |            | 0.0619     |            |       |  0.03

Nlocal:        288.000 ave         288 max         288 min
Histogram: 1 0 0 0 0 0 0 0 0 0
Nghost:        1784.00 ave        1784 max        1784 min
Histogram: 1 0 0 0 0 0 0 0 0 0
Neighs:         0.00000 ave           0 max           0 min
Histogram: 1 0 0 0 0 0 0 0 0 0
FullNghs:      34286.0 ave       34286 max       34286 min
Histogram: 1 0 0 0 0 0 0 0 0 0

Total # of neighbors = 34286
Ave neighs/atom = 119.04861
Neighbor list builds = 703
Dangerous builds = 0
Unloading pair style deepmd
Unloading compute style deeptensor/atom
Unloading fix style dplr
Total wall time: 0:05:18
