1.529273986816406250e+01 0.000000000000000000e+00 0.000000000000000000e+00 0.000000000000000000e+00 1.529273986816406250e+01 0.000000000000000000e+00 0.000000000000000000e+00 0.000000000000000000e+00 1.529273986816406250e+01
1.550455760955810547e+01 0.000000000000000000e+00 0.000000000000000000e+00 0.000000000000000000e+00 1.550455760955810547e+01 0.000000000000000000e+00 0.000000000000000000e+00 0.000000000000000000e+00 1.550455760955810547e+01
1.677435111999511719e+01 0.000000000000000000e+00 0.000000000000000000e+00 0.000000000000000000e+00 1.677435111999511719e+01 0.000000000000000000e+00 0.000000000000000000e+00 0.000000000000000000e+00 1.677435111999511719e+01
1.730872344970703125e+01 0.000000000000000000e+00 0.000000000000000000e+00 0.000000000000000000e+00 1.730872344970703125e+01 0.000000000000000000e+00 0.000000000000000000e+00 0.000000000000000000e+00 1.730872344970703125e+01
1.710594367980957031e+01 0.000000000000000000e+00 0.000000000000000000e+00 0.000000000000000000e+00 1.710594367980957031e+01 0.000000000000000000e+00 0.000000000000000000e+00 0.000000000000000000e+00 1.710594367980957031e+01
1.688619804382324219e+01 0.000000000000000000e+00 0.000000000000000000e+00 0.000000000000000000e+00 1.688619804382324219e+01 0.000000000000000000e+00 0.000000000000000000e+00 0.000000000000000000e+00 1.688619804382324219e+01
1.678592300415039062e+01 0.000000000000000000e+00 0.000000000000000000e+00 0.000000000000000000e+00 1.678592300415039062e+01 0.000000000000000000e+00 0.000000000000000000e+00 0.000000000000000000e+00 1.678592300415039062e+01
1.644269180297851562e+01 0.000000000000000000e+00 0.000000000000000000e+00 0.000000000000000000e+00 1.644269180297851562e+01 0.000000000000000000e+00 0.000000000000000000e+00 0.000000000000000000e+00 1.644269180297851562e+01
1.554476737976074219e+01 0.000000000000000000e+00 0.000000000000000000e+00 0.000000000000000000e+00 1.554476737976074219e+01 0.000000000000000000e+00 0.000000000000000000e+00 0.000000000000000000e+00 1.554476737976074219e+01
1.709167098999023438e+01 0.000000000000000000e+00 0.000000000000000000e+00 0.000000000000000000e+00 1.709167098999023438e+01 0.000000000000000000e+00 0.000000000000000000e+00 0.000000000000000000e+00 1.709167098999023438e+01
1.671217918395996094e+01 0.000000000000000000e+00 0.000000000000000000e+00 0.000000000000000000e+00 1.671217918395996094e+01 0.000000000000000000e+00 0.000000000000000000e+00 0.000000000000000000e+00 1.671217918395996094e+01
1.650787925720214844e+01 0.000000000000000000e+00 0.000000000000000000e+00 0.000000000000000000e+00 1.650787925720214844e+01 0.000000000000000000e+00 0.000000000000000000e+00 0.000000000000000000e+00 1.650787925720214844e+01
1.658503913879394531e+01 0.000000000000000000e+00 0.000000000000000000e+00 0.000000000000000000e+00 1.658503913879394531e+01 0.000000000000000000e+00 0.000000000000000000e+00 0.000000000000000000e+00 1.658503913879394531e+01
1.537568664550781250e+01 0.000000000000000000e+00 0.000000000000000000e+00 0.000000000000000000e+00 1.537568664550781250e+01 0.000000000000000000e+00 0.000000000000000000e+00 0.000000000000000000e+00 1.537568664550781250e+01
1.561402225494384766e+01 0.000000000000000000e+00 0.000000000000000000e+00 0.000000000000000000e+00 1.561402225494384766e+01 0.000000000000000000e+00 0.000000000000000000e+00 0.000000000000000000e+00 1.561402225494384766e+01
1.654617881774902344e+01 0.000000000000000000e+00 0.000000000000000000e+00 0.000000000000000000e+00 1.654617881774902344e+01 0.000000000000000000e+00 0.000000000000000000e+00 0.000000000000000000e+00 1.654617881774902344e+01
1.698339843750000000e+01 0.000000000000000000e+00 0.000000000000000000e+00 0.000000000000000000e+00 1.698339843750000000e+01 0.000000000000000000e+00 0.000000000000000000e+00 0.000000000000000000e+00 1.698339843750000000e+01
1.683553886413574219e+01 0.000000000000000000e+00 0.000000000000000000e+00 0.000000000000000000e+00 1.683553886413574219e+01 0.000000000000000000e+00 0.000000000000000000e+00 0.000000000000000000e+00 1.683553886413574219e+01
1.551775264739990234e+01 0.000000000000000000e+00 0.000000000000000000e+00 0.000000000000000000e+00 1.551775264739990234e+01 0.000000000000000000e+00 0.000000000000000000e+00 0.000000000000000000e+00 1.551775264739990234e+01
1.686907196044921875e+01 0.000000000000000000e+00 0.000000000000000000e+00 0.000000000000000000e+00 1.686907196044921875e+01 0.000000000000000000e+00 0.000000000000000000e+00 0.000000000000000000e+00 1.686907196044921875e+01
1.649702072143554688e+01 0.000000000000000000e+00 0.000000000000000000e+00 0.000000000000000000e+00 1.649702072143554688e+01 0.000000000000000000e+00 0.000000000000000000e+00 0.000000000000000000e+00 1.649702072143554688e+01
1.689275550842285156e+01 0.000000000000000000e+00 0.000000000000000000e+00 0.000000000000000000e+00 1.689275550842285156e+01 0.000000000000000000e+00 0.000000000000000000e+00 0.000000000000000000e+00 1.689275550842285156e+01
1.565863609313964844e+01 0.000000000000000000e+00 0.000000000000000000e+00 0.000000000000000000e+00 1.565863609313964844e+01 0.000000000000000000e+00 0.000000000000000000e+00 0.000000000000000000e+00 1.565863609313964844e+01
1.547677993774414062e+01 0.000000000000000000e+00 0.000000000000000000e+00 0.000000000000000000e+00 1.547677993774414062e+01 0.000000000000000000e+00 0.000000000000000000e+00 0.000000000000000000e+00 1.547677993774414062e+01
1.537864875793457031e+01 0.000000000000000000e+00 0.000000000000000000e+00 0.000000000000000000e+00 1.537864875793457031e+01 0.000000000000000000e+00 0.000000000000000000e+00 0.000000000000000000e+00 1.537864875793457031e+01
1.554084014892578125e+01 0.000000000000000000e+00 0.000000000000000000e+00 0.000000000000000000e+00 1.554084014892578125e+01 0.000000000000000000e+00 0.000000000000000000e+00 0.000000000000000000e+00 1.554084014892578125e+01
1.684918022155761719e+01 0.000000000000000000e+00 0.000000000000000000e+00 0.000000000000000000e+00 1.684918022155761719e+01 0.000000000000000000e+00 0.000000000000000000e+00 0.000000000000000000e+00 1.684918022155761719e+01
1.676543426513671875e+01 0.000000000000000000e+00 0.000000000000000000e+00 0.000000000000000000e+00 1.676543426513671875e+01 0.000000000000000000e+00 0.000000000000000000e+00 0.000000000000000000e+00 1.676543426513671875e+01
1.676162719726562500e+01 0.000000000000000000e+00 0.000000000000000000e+00 0.000000000000000000e+00 1.676162719726562500e+01 0.000000000000000000e+00 0.000000000000000000e+00 0.000000000000000000e+00 1.676162719726562500e+01
1.542663860321044922e+01 0.000000000000000000e+00 0.000000000000000000e+00 0.000000000000000000e+00 1.542663860321044922e+01 0.000000000000000000e+00 0.000000000000000000e+00 0.000000000000000000e+00 1.542663860321044922e+01
1.722535896301269531e+01 0.000000000000000000e+00 0.000000000000000000e+00 0.000000000000000000e+00 1.722535896301269531e+01 0.000000000000000000e+00 0.000000000000000000e+00 0.000000000000000000e+00 1.722535896301269531e+01
1.616076087951660156e+01 0.000000000000000000e+00 0.000000000000000000e+00 0.000000000000000000e+00 1.616076087951660156e+01 0.000000000000000000e+00 0.000000000000000000e+00 0.000000000000000000e+00 1.616076087951660156e+01
1.531450271606445312e+01 0.000000000000000000e+00 0.000000000000000000e+00 0.000000000000000000e+00 1.531450271606445312e+01 0.000000000000000000e+00 0.000000000000000000e+00 0.000000000000000000e+00 1.531450271606445312e+01
1.630560874938964844e+01 0.000000000000000000e+00 0.000000000000000000e+00 0.000000000000000000e+00 1.630560874938964844e+01 0.000000000000000000e+00 0.000000000000000000e+00 0.000000000000000000e+00 1.630560874938964844e+01
1.692074394226074219e+01 0.000000000000000000e+00 0.000000000000000000e+00 0.000000000000000000e+00 1.692074394226074219e+01 0.000000000000000000e+00 0.000000000000000000e+00 0.000000000000000000e+00 1.692074394226074219e+01
1.544830036163330078e+01 0.000000000000000000e+00 0.000000000000000000e+00 0.000000000000000000e+00 1.544830036163330078e+01 0.000000000000000000e+00 0.000000000000000000e+00 0.000000000000000000e+00 1.544830036163330078e+01
1.552154636383056641e+01 0.000000000000000000e+00 0.000000000000000000e+00 0.000000000000000000e+00 1.552154636383056641e+01 0.000000000000000000e+00 0.000000000000000000e+00 0.000000000000000000e+00 1.552154636383056641e+01
1.676611518859863281e+01 0.000000000000000000e+00 0.000000000000000000e+00 0.000000000000000000e+00 1.676611518859863281e+01 0.000000000000000000e+00 0.000000000000000000e+00 0.000000000000000000e+00 1.676611518859863281e+01
1.697239112854003906e+01 0.000000000000000000e+00 0.000000000000000000e+00 0.000000000000000000e+00 1.697239112854003906e+01 0.000000000000000000e+00 0.000000000000000000e+00 0.000000000000000000e+00 1.697239112854003906e+01
1.674648475646972656e+01 0.000000000000000000e+00 0.000000000000000000e+00 0.000000000000000000e+00 1.674648475646972656e+01 0.000000000000000000e+00 0.000000000000000000e+00 0.000000000000000000e+00 1.674648475646972656e+01
1.656305503845214844e+01 0.000000000000000000e+00 0.000000000000000000e+00 0.000000000000000000e+00 1.656305503845214844e+01 0.000000000000000000e+00 0.000000000000000000e+00 0.000000000000000000e+00 1.656305503845214844e+01
1.701608848571777344e+01 0.000000000000000000e+00 0.000000000000000000e+00 0.000000000000000000e+00 1.701608848571777344e+01 0.000000000000000000e+00 0.000000000000000000e+00 0.000000000000000000e+00 1.701608848571777344e+01
1.547362899780273438e+01 0.000000000000000000e+00 0.000000000000000000e+00 0.000000000000000000e+00 1.547362899780273438e+01 0.000000000000000000e+00 0.000000000000000000e+00 0.000000000000000000e+00 1.547362899780273438e+01
1.554849052429199219e+01 0.000000000000000000e+00 0.000000000000000000e+00 0.000000000000000000e+00 1.554849052429199219e+01 0.000000000000000000e+00 0.000000000000000000e+00 0.000000000000000000e+00 1.554849052429199219e+01
1.547182273864746094e+01 0.000000000000000000e+00 0.000000000000000000e+00 0.000000000000000000e+00 1.547182273864746094e+01 0.000000000000000000e+00 0.000000000000000000e+00 0.000000000000000000e+00 1.547182273864746094e+01
1.677809906005859375e+01 0.000000000000000000e+00 0.000000000000000000e+00 0.000000000000000000e+00 1.677809906005859375e+01 0.000000000000000000e+00 0.000000000000000000e+00 0.000000000000000000e+00 1.677809906005859375e+01
1.682288932800292969e+01 0.000000000000000000e+00 0.000000000000000000e+00 0.000000000000000000e+00 1.682288932800292969e+01 0.000000000000000000e+00 0.000000000000000000e+00 0.000000000000000000e+00 1.682288932800292969e+01
1.652610778808593750e+01 0.000000000000000000e+00 0.000000000000000000e+00 0.000000000000000000e+00 1.652610778808593750e+01 0.000000000000000000e+00 0.000000000000000000e+00 0.000000000000000000e+00 1.652610778808593750e+01
1.654305076599121094e+01 0.000000000000000000e+00 0.000000000000000000e+00 0.000000000000000000e+00 1.654305076599121094e+01 0.000000000000000000e+00 0.000000000000000000e+00 0.000000000000000000e+00 1.654305076599121094e+01
1.552524375915527344e+01 0.000000000000000000e+00 0.000000000000000000e+00 0.000000000000000000e+00 1.552524375915527344e+01 0.000000000000000000e+00 0.000000000000000000e+00 0.000000000000000000e+00 1.552524375915527344e+01
1.633954811096191406e+01 0.000000000000000000e+00 0.000000000000000000e+00 0.000000000000000000e+00 1.633954811096191406e+01 0.000000000000000000e+00 0.000000000000000000e+00 0.000000000000000000e+00 1.633954811096191406e+01
1.534599685668945312e+01 0.000000000000000000e+00 0.000000000000000000e+00 0.000000000000000000e+00 1.534599685668945312e+01 0.000000000000000000e+00 0.000000000000000000e+00 0.000000000000000000e+00 1.534599685668945312e+01
1.545399379730224609e+01 0.000000000000000000e+00 0.000000000000000000e+00 0.000000000000000000e+00 1.545399379730224609e+01 0.000000000000000000e+00 0.000000000000000000e+00 0.000000000000000000e+00 1.545399379730224609e+01
1.555484771728515625e+01 0.000000000000000000e+00 0.000000000000000000e+00 0.000000000000000000e+00 1.555484771728515625e+01 0.000000000000000000e+00 0.000000000000000000e+00 0.000000000000000000e+00 1.555484771728515625e+01
1.552352714538574219e+01 0.000000000000000000e+00 0.000000000000000000e+00 0.000000000000000000e+00 1.552352714538574219e+01 0.000000000000000000e+00 0.000000000000000000e+00 0.000000000000000000e+00 1.552352714538574219e+01
1.549051189422607422e+01 0.000000000000000000e+00 0.000000000000000000e+00 0.000000000000000000e+00 1.549051189422607422e+01 0.000000000000000000e+00 0.000000000000000000e+00 0.000000000000000000e+00 1.549051189422607422e+01
1.537510204315185547e+01 0.000000000000000000e+00 0.000000000000000000e+00 0.000000000000000000e+00 1.537510204315185547e+01 0.000000000000000000e+00 0.000000000000000000e+00 0.000000000000000000e+00 1.537510204315185547e+01
1.697645759582519531e+01 0.000000000000000000e+00 0.000000000000000000e+00 0.000000000000000000e+00 1.697645759582519531e+01 0.000000000000000000e+00 0.000000000000000000e+00 0.000000000000000000e+00 1.697645759582519531e+01
1.547390174865722656e+01 0.000000000000000000e+00 0.000000000000000000e+00 0.000000000000000000e+00 1.547390174865722656e+01 0.000000000000000000e+00 0.000000000000000000e+00 0.000000000000000000e+00 1.547390174865722656e+01
1.631909370422363281e+01 0.000000000000000000e+00 0.000000000000000000e+00 0.000000000000000000e+00 1.631909370422363281e+01 0.000000000000000000e+00 0.000000000000000000e+00 0.000000000000000000e+00 1.631909370422363281e+01
1.543936634063720703e+01 0.000000000000000000e+00 0.000000000000000000e+00 0.000000000000000000e+00 1.543936634063720703e+01 0.000000000000000000e+00 0.000000000000000000e+00 0.000000000000000000e+00 1.543936634063720703e+01
1.669363975524902344e+01 0.000000000000000000e+00 0.000000000000000000e+00 0.000000000000000000e+00 1.669363975524902344e+01 0.000000000000000000e+00 0.000000000000000000e+00 0.000000000000000000e+00 1.669363975524902344e+01
1.671467971801757812e+01 0.000000000000000000e+00 0.000000000000000000e+00 0.000000000000000000e+00 1.671467971801757812e+01 0.000000000000000000e+00 0.000000000000000000e+00 0.000000000000000000e+00 1.671467971801757812e+01
1.666269683837890625e+01 0.000000000000000000e+00 0.000000000000000000e+00 0.000000000000000000e+00 1.666269683837890625e+01 0.000000000000000000e+00 0.000000000000000000e+00 0.000000000000000000e+00 1.666269683837890625e+01
1.565384483337402344e+01 0.000000000000000000e+00 0.000000000000000000e+00 0.000000000000000000e+00 1.565384483337402344e+01 0.000000000000000000e+00 0.000000000000000000e+00 0.000000000000000000e+00 1.565384483337402344e+01
1.678768348693847656e+01 0.000000000000000000e+00 0.000000000000000000e+00 0.000000000000000000e+00 1.678768348693847656e+01 0.000000000000000000e+00 0.000000000000000000e+00 0.000000000000000000e+00 1.678768348693847656e+01
1.532091712951660156e+01 0.000000000000000000e+00 0.000000000000000000e+00 0.000000000000000000e+00 1.532091712951660156e+01 0.000000000000000000e+00 0.000000000000000000e+00 0.000000000000000000e+00 1.532091712951660156e+01
1.632456588745117188e+01 0.000000000000000000e+00 0.000000000000000000e+00 0.000000000000000000e+00 1.632456588745117188e+01 0.000000000000000000e+00 0.000000000000000000e+00 0.000000000000000000e+00 1.632456588745117188e+01
1.617820549011230469e+01 0.000000000000000000e+00 0.000000000000000000e+00 0.000000000000000000e+00 1.617820549011230469e+01 0.000000000000000000e+00 0.000000000000000000e+00 0.000000000000000000e+00 1.617820549011230469e+01
1.685275840759277344e+01 0.000000000000000000e+00 0.000000000000000000e+00 0.000000000000000000e+00 1.685275840759277344e+01 0.000000000000000000e+00 0.000000000000000000e+00 0.000000000000000000e+00 1.685275840759277344e+01
1.676562690734863281e+01 0.000000000000000000e+00 0.000000000000000000e+00 0.000000000000000000e+00 1.676562690734863281e+01 0.000000000000000000e+00 0.000000000000000000e+00 0.000000000000000000e+00 1.676562690734863281e+01
1.628724479675292969e+01 0.000000000000000000e+00 0.000000000000000000e+00 0.000000000000000000e+00 1.628724479675292969e+01 0.000000000000000000e+00 0.000000000000000000e+00 0.000000000000000000e+00 1.628724479675292969e+01
1.567677116394042969e+01 0.000000000000000000e+00 0.000000000000000000e+00 0.000000000000000000e+00 1.567677116394042969e+01 0.000000000000000000e+00 0.000000000000000000e+00 0.000000000000000000e+00 1.567677116394042969e+01
1.660545730590820312e+01 0.000000000000000000e+00 0.000000000000000000e+00 0.000000000000000000e+00 1.660545730590820312e+01 0.000000000000000000e+00 0.000000000000000000e+00 0.000000000000000000e+00 1.660545730590820312e+01
1.714434051513671875e+01 0.000000000000000000e+00 0.000000000000000000e+00 0.000000000000000000e+00 1.714434051513671875e+01 0.000000000000000000e+00 0.000000000000000000e+00 0.000000000000000000e+00 1.714434051513671875e+01
1.545147609710693359e+01 0.000000000000000000e+00 0.000000000000000000e+00 0.000000000000000000e+00 1.545147609710693359e+01 0.000000000000000000e+00 0.000000000000000000e+00 0.000000000000000000e+00 1.545147609710693359e+01
1.677422142028808594e+01 0.000000000000000000e+00 0.000000000000000000e+00 0.000000000000000000e+00 1.677422142028808594e+01 0.000000000000000000e+00 0.000000000000000000e+00 0.000000000000000000e+00 1.677422142028808594e+01
1.704564857482910156e+01 0.000000000000000000e+00 0.000000000000000000e+00 0.000000000000000000e+00 1.704564857482910156e+01 0.000000000000000000e+00 0.000000000000000000e+00 0.000000000000000000e+00 1.704564857482910156e+01
