-1.872594604492187500e+03
-1.876372802734375000e+03
-1.873739379882812500e+03
-1.868783325195312500e+03
-1.869215454101562500e+03
-1.870884033203125000e+03
-1.872228881835937500e+03
-1.877922485351562500e+03
-1.875034667968750000e+03
-1.872937377929687500e+03
-1.871373413085937500e+03
-1.876922485351562500e+03
-1.872233398437500000e+03
-1.874485229492187500e+03
-1.875794799804687500e+03
-1.873364990234375000e+03
-1.871557250976562500e+03
-1.870547485351562500e+03
-1.873220581054687500e+03
-1.872698242187500000e+03
-1.874756225585937500e+03
-1.871793457031250000e+03
-1.874297607421875000e+03
-1.874153686523437500e+03
-1.876852294921875000e+03
-1.882871948242187500e+03
-1.871655517578125000e+03
-1.873192016601562500e+03
-1.873208618164062500e+03
-1.871891723632812500e+03
-1.870361572265625000e+03
-1.882132568359375000e+03
-1.871299194335937500e+03
-1.877853759765625000e+03
-1.869264282226562500e+03
-1.882376342773437500e+03
-1.874132324218750000e+03
-1.873800537109375000e+03
-1.870617553710937500e+03
-1.872052978515625000e+03
-1.871590454101562500e+03
-1.869905395507812500e+03
-1.877663940429687500e+03
-1.874740112304687500e+03
-1.878149169921875000e+03
-1.873754028320312500e+03
-1.873120361328125000e+03
-1.874050903320312500e+03
-1.873572509765625000e+03
-1.878125366210937500e+03
-1.878519287109375000e+03
-1.871642333984375000e+03
-1.871230224609375000e+03
-1.871966674804687500e+03
-1.874302856445312500e+03
-1.874119628906250000e+03
-1.877495361328125000e+03
-1.870171752929687500e+03
-1.873718994140625000e+03
-1.873039672851562500e+03
-1.876776733398437500e+03
-1.870451049804687500e+03
-1.878569213867187500e+03
-1.873633300781250000e+03
-1.878048950195312500e+03
-1.873979370117187500e+03
-1.868892333984375000e+03
-1.875427612304687500e+03
-1.883149658203125000e+03
-1.873633666992187500e+03
-1.873773437500000000e+03
-1.873601074218750000e+03
-1.877852050781250000e+03
-1.877737426757812500e+03
-1.870706176757812500e+03
-1.879425048828125000e+03
-1.874653686523437500e+03
-1.870747070312500000e+03
