1.770639999999999992e-01 2.560649999999999871e+00 -3.358900000000000080e-02 -1.487702999999999998e+00 -2.350468999999999919e+00 1.918999999999999873e-02 -7.325639999999999930e-01 -2.444801000000000002e+00 4.062199999999999839e-02 9.366489999999999538e-01 -1.010039999999999966e-01 -1.103799999999999920e-02 5.570000000000000506e-01 1.168617999999999935e+00 -1.640015999999999918e+00 5.495529999999999582e-01 1.167005999999999988e+00 1.624830999999999914e+00
