<?xml version="1.0" encoding="ISO-8859-1"?>
<modeling>
 <generator>
  <i name="program" type="string">vasp </i>
  <i name="version" type="string">5.4.4.18Apr17-6-g9f103f2a35  </i>
  <i name="subversion" type="string">(build Nov 25 2019 16:34:31) complex            parallel </i>
  <i name="platform" type="string">LinuxIFC </i>
  <i name="date" type="string">2021 04 06 </i>
  <i name="time" type="string">12:18:04 </i>
 </generator>
 <incar>
  <i type="string" name="PREC">a</i>
  <i type="string" name="ALGO">fast</i>
  <i name="AMIN">      0.00500000</i>
  <i type="int" name="NELM">   300</i>
  <i type="int" name="NELMIN">     4</i>
  <i type="int" name="IBRION">    -1</i>
  <i name="EDIFF">      0.00000001</i>
  <i type="int" name="NSW">     0</i>
  <i type="int" name="ISIF">     2</i>
  <i name="ENCUT">   1500.00000000</i>
  <i type="logical" name="LREAL"> F  </i>
  <i type="int" name="ISMEAR">     0</i>
  <i name="SIGMA">      0.05000000</i>
  <i name="KSPACING">      0.50000000</i>
  <i type="logical" name="KGAMMA"> F  </i>
  <i name="PSTRESS">      0.00000000</i>
  <i type="logical" name="LWAVE"> F  </i>
  <i type="logical" name="LCHARG"> F  </i>
  <v type="int" name="KPOINT_BSE">    -1     0     0     0</v>
  <i type="int" name="NELM">   300</i>
 </incar>
 <structure name="primitive_cell" >
  <crystal>
   <varray name="basis" >
    <v>      30.00000000       0.00000000       0.00000000 </v>
    <v>       0.00000000      10.00000000       0.00000000 </v>
    <v>       0.00000000       0.00000000      10.00000000 </v>
   </varray>
   <i name="volume">   3000.00000000 </i>
   <varray name="rec_basis" >
    <v>       0.03333333       0.00000000       0.00000000 </v>
    <v>       0.00000000       0.10000000       0.00000000 </v>
    <v>       0.00000000       0.00000000       0.10000000 </v>
   </varray>
  </crystal>
  <varray name="positions" >
   <v>       0.09186896       0.15710957       0.17600000 </v>
   <v>       0.05847255       0.16672783       0.17649328 </v>
   <v>       0.10254413       0.25541218       0.17439231 </v>
   <v>      -0.04486896       0.15710957       0.17600000 </v>
   <v>      -0.05375150       0.09907990       0.09607226 </v>
   <v>      -0.05387697       0.09941802       0.25610440 </v>
  </varray>
 </structure>
 <varray name="primitive_index" >
  <v type="int" >        1 </v>
  <v type="int" >        4 </v>
  <v type="int" >        3 </v>
  <v type="int" >        2 </v>
  <v type="int" >        6 </v>
  <v type="int" >        5 </v>
 </varray>
 <kpoints>
  <generation param="Monkhorst-Pack">
   <v type="int" name="divisions">       1        2        2 </v>
   <v name="usershift">      0.00000000       0.00000000       0.00000000 </v>
   <v name="genvec1">      1.00000000       0.00000000       0.00000000 </v>
   <v name="genvec2">      0.00000000       0.50000000       0.00000000 </v>
   <v name="genvec3">      0.00000000       0.00000000       0.50000000 </v>
   <v name="shift">      0.00000000       0.50000000       0.50000000 </v>
  </generation>
  <varray name="kpointlist" >
   <v>       0.00000000       0.25000000       0.25000000 </v>
   <v>       0.00000000      -0.25000000       0.25000000 </v>
  </varray>
  <varray name="weights" >
   <v>       0.50000000 </v>
   <v>       0.50000000 </v>
  </varray>
 </kpoints>
 <parameters>
  <separator name="general" >
   <i type="string" name="SYSTEM">unknown system</i>
   <i type="logical" name="LCOMPAT"> F  </i>
  </separator>
  <separator name="electronic" >
   <i type="string" name="PREC">a</i>
   <i name="ENMAX">   1500.00000000</i>
   <i name="ENAUG">   1000.00000000</i>
   <i name="EDIFF">      0.00000001</i>
   <i type="int" name="IALGO">    68</i>
   <i type="int" name="IWAVPR">    10</i>
   <i type="int" name="NBANDS">    12</i>
   <i name="NELECT">     16.00000000</i>
   <i type="int" name="TURBO">     0</i>
   <i type="int" name="IRESTART">     0</i>
   <i type="int" name="NREBOOT">     0</i>
   <i type="int" name="NMIN">     0</i>
   <i name="EREF">      0.00000000</i>
   <separator name="electronic smearing" >
    <i type="int" name="ISMEAR">     0</i>
    <i name="SIGMA">      0.05000000</i>
    <i name="KSPACING">      0.50000000</i>
    <i type="logical" name="KGAMMA"> F  </i>
   </separator>
   <separator name="electronic projectors" >
    <i type="logical" name="LREAL"> F  </i>
    <v name="ROPT">      0.00000000      0.00000000</v>
    <i type="int" name="LMAXPAW">  -100</i>
    <i type="int" name="LMAXMIX">     2</i>
    <i type="logical" name="NLSPLINE"> F  </i>
   </separator>
   <separator name="electronic startup" >
    <i type="int" name="ISTART">     0</i>
    <i type="int" name="ICHARG">     2</i>
    <i type="int" name="INIWAV">     1</i>
   </separator>
   <separator name="electronic spin" >
    <i type="int" name="ISPIN">     1</i>
    <i type="logical" name="LNONCOLLINEAR"> F  </i>
    <v name="MAGMOM">      1.00000000      1.00000000      1.00000000      1.00000000      1.00000000      1.00000000</v>
    <i name="NUPDOWN">     -1.00000000</i>
    <i type="logical" name="LSORBIT"> F  </i>
    <v name="SAXIS">      0.00000000      0.00000000      1.00000000</v>
    <i type="logical" name="LSPIRAL"> F  </i>
    <v name="QSPIRAL">      0.00000000      0.00000000      0.00000000</v>
    <i type="logical" name="LZEROZ"> F  </i>
   </separator>
   <separator name="electronic exchange-correlation" >
    <i type="logical" name="LASPH"> F  </i>
    <i type="logical" name="LMETAGGA"> F  </i>
   </separator>
   <separator name="electronic convergence" >
    <i type="int" name="NELM">   300</i>
    <i type="int" name="NELMDL">     0</i>
    <i type="int" name="NELMIN">     4</i>
    <i name="ENINI">   1500.00000000</i>
    <separator name="electronic convergence detail" >
     <i type="logical" name="LDIAG"> T  </i>
     <i type="logical" name="LSUBROT"> F  </i>
     <i name="WEIMIN">      0.00000000</i>
     <i name="EBREAK">      0.00000000</i>
     <i name="DEPER">      0.30000000</i>
     <i type="int" name="NRMM">     4</i>
     <i name="TIME">      0.40000000</i>
    </separator>
   </separator>
   <separator name="electronic mixer" >
    <i name="AMIX">      0.40000000</i>
    <i name="BMIX">      1.00000000</i>
    <i name="AMIN">      0.00500000</i>
    <i name="AMIX_MAG">      1.60000000</i>
    <i name="BMIX_MAG">      1.00000000</i>
    <separator name="electronic mixer details" >
     <i type="int" name="IMIX">     4</i>
     <i type="logical" name="MIXFIRST"> F  </i>
     <i type="int" name="MAXMIX">   -45</i>
     <i name="WC">    100.00000000</i>
     <i type="int" name="INIMIX">     1</i>
     <i type="int" name="MIXPRE">     1</i>
     <i type="int" name="MREMOVE">     5</i>
    </separator>
   </separator>
   <separator name="electronic dipolcorrection" >
    <i type="logical" name="LDIPOL"> F  </i>
    <i type="logical" name="LMONO"> F  </i>
    <i type="int" name="IDIPOL">     0</i>
    <i name="EPSILON">      1.00000000</i>
    <v name="DIPOL">   -100.00000000   -100.00000000   -100.00000000</v>
    <i name="EFIELD">      0.00000000</i>
   </separator>
  </separator>
  <separator name="grids" >
   <i type="int" name="NGX">   384</i>
   <i type="int" name="NGY">   126</i>
   <i type="int" name="NGZ">   126</i>
   <i type="int" name="NGXF">   768</i>
   <i type="int" name="NGYF">   252</i>
   <i type="int" name="NGZF">   252</i>
   <i type="logical" name="ADDGRID"> F  </i>
  </separator>
  <separator name="ionic" >
   <i type="int" name="NSW">     0</i>
   <i type="int" name="IBRION">    -1</i>
   <i type="int" name="MDALGO">     0</i>
   <i type="int" name="ISIF">     2</i>
   <i name="PSTRESS">      0.00000000</i>
   <i name="EDIFFG">      0.00000010</i>
   <i type="int" name="NFREE">     0</i>
   <i name="POTIM">      0.50000000</i>
   <i name="SMASS">     -3.00000000</i>
   <i name="SCALEE">      1.00000000</i>
  </separator>
  <separator name="ionic md" >
   <i name="TEBEG">      0.00010000</i>
   <i name="TEEND">      0.00010000</i>
   <i type="int" name="NBLOCK">     1</i>
   <i type="int" name="KBLOCK">     1</i>
   <i type="int" name="NPACO">   256</i>
   <i name="APACO">     16.00000000</i>
  </separator>
  <separator name="symmetry" >
   <i type="int" name="ISYM">     2</i>
   <i name="SYMPREC">      0.00001000</i>
  </separator>
  <separator name="dos" >
   <i type="int" name="LORBIT">     0</i>
   <v name="RWIGS">     -1.00000000     -1.00000000</v>
   <i type="int" name="NEDOS">   301</i>
   <i name="EMIN">     10.00000000</i>
   <i name="EMAX">    -10.00000000</i>
   <i name="EFERMI">      0.00000000</i>
  </separator>
  <separator name="writing" >
   <i type="int" name="NWRITE">     2</i>
   <i type="logical" name="LWAVE"> F  </i>
   <i type="logical" name="LDOWNSAMPLE"> F  </i>
   <i type="logical" name="LCHARG"> F  </i>
   <i type="logical" name="LPARD"> F  </i>
   <i type="logical" name="LVTOT"> F  </i>
   <i type="logical" name="LVHAR"> F  </i>
   <i type="logical" name="LELF"> F  </i>
   <i type="logical" name="LOPTICS"> F  </i>
   <v name="STM">      0.00000000      0.00000000      0.00000000      0.00000000      0.00000000      0.00000000      0.00000000</v>
  </separator>
  <separator name="performance" >
   <i type="int" name="NPAR">     2</i>
   <i type="int" name="NSIM">     4</i>
   <i type="int" name="NBLK">    -1</i>
   <i type="logical" name="LPLANE"> T  </i>
   <i type="logical" name="LSCALAPACK"> T  </i>
   <i type="logical" name="LSCAAWARE"> F  </i>
   <i type="logical" name="LSCALU"> F  </i>
   <i type="logical" name="LASYNC"> F  </i>
   <i type="logical" name="LORBITALREAL"> F  </i>
  </separator>
  <separator name="miscellaneous" >
   <i type="int" name="IDIOT">     3</i>
   <i type="int" name="ISPECIAL">     0</i>
   <i type="logical" name="LMUSIC"> F  </i>
   <v name="POMASS">     16.00000000      1.00000000</v>
   <v name="DARWINR">      0.00000000      0.00000000</v>
   <v name="DARWINV">      1.00000000      1.00000000</v>
   <i type="logical" name="LCORR"> T  </i>
  </separator>
  <i type="logical" name="GGA_COMPAT"> T  </i>
  <i type="logical" name="LBERRY"> F  </i>
  <i type="int" name="ICORELEVEL">     0</i>
  <i type="logical" name="LDAU"> F  </i>
  <i type="int" name="I_CONSTRAINED_M">     0</i>
  <separator name="electronic exchange-correlation" >
   <i type="string" name="GGA">--</i>
   <i type="int" name="VOSKOWN">     0</i>
   <i type="logical" name="LHFCALC"> F  </i>
   <i type="string" name="PRECFOCK"></i>
   <i type="logical" name="LSYMGRAD"> F  </i>
   <i type="logical" name="LHFONE"> F  </i>
   <i type="logical" name="LRHFCALC"> F  </i>
   <i type="logical" name="LTHOMAS"> F  </i>
   <i type="logical" name="LMODELHF"> F  </i>
   <i name="ENCUT4O">     -1.00000000</i>
   <i type="int" name="EXXOEP">     0</i>
   <i type="int" name="FOURORBIT">     0</i>
   <i name="AEXX">      0.00000000</i>
   <i name="HFALPHA">      0.00000000</i>
   <i name="MCALPHA">      0.00000000</i>
   <i name="ALDAX">      1.00000000</i>
   <i name="AGGAX">      1.00000000</i>
   <i name="ALDAC">      1.00000000</i>
   <i name="AGGAC">      1.00000000</i>
   <i type="int" name="NKREDX">     1</i>
   <i type="int" name="NKREDY">     1</i>
   <i type="int" name="NKREDZ">     1</i>
   <i type="logical" name="SHIFTRED"> F  </i>
   <i type="logical" name="ODDONLY"> F  </i>
   <i type="logical" name="EVENONLY"> F  </i>
   <i type="int" name="LMAXFOCK">     0</i>
   <i type="int" name="NMAXFOCKAE">     0</i>
   <i type="logical" name="LFOCKAEDFT"> F  </i>
   <i name="HFSCREEN">      0.00000000</i>
   <i name="HFSCREENC">      0.00000000</i>
   <i type="int" name="NBANDSGWLOW">     0</i>
  </separator>
  <separator name="vdW DFT" >
   <i type="logical" name="LUSE_VDW"> F  </i>
   <i name="Zab_VDW">     -0.84910000</i>
   <i name="PARAM1">      0.12340000</i>
   <i name="PARAM2">      1.00000000</i>
   <i name="PARAM3">      0.00000000</i>
  </separator>
  <separator name="model GW" >
   <i type="int" name="MODEL_GW">     0</i>
   <i name="MODEL_EPS0">    300.00000000</i>
   <i name="MODEL_ALPHA">      1.00000000</i>
  </separator>
  <separator name="linear response parameters" >
   <i type="logical" name="LEPSILON"> F  </i>
   <i type="logical" name="LRPA"> F  </i>
   <i type="logical" name="LNABLA"> F  </i>
   <i type="logical" name="LVEL"> F  </i>
   <i type="int" name="KINTER">     0</i>
   <i name="CSHIFT">      0.10000000</i>
   <i name="OMEGAMAX">     -1.00000000</i>
   <i name="DEG_THRESHOLD">      0.00200000</i>
   <i name="RTIME">     -0.10000000</i>
   <i name="WPLASMAI">      0.00000000</i>
   <v name="DFIELD">      0.00000000      0.00000000      0.00000000</v>
   <v name="WPLASMA">      0.00000000      0.00000000      0.00000000      0.00000000      0.00000000      0.00000000      0.00000000      0.00000000      0.00000000</v>
  </separator>
  <separator name="orbital magnetization" >
   <i type="logical" name="NUCIND"> F  </i>
   <v name="MAGPOS">      0.00000000      0.00000000      0.00000000</v>
   <i type="logical" name="LNICSALL"> T  </i>
   <i type="logical" name="ORBITALMAG"> F  </i>
   <i type="logical" name="LMAGBLOCH"> F  </i>
   <i type="logical" name="LCHIMAG"> F  </i>
   <i type="logical" name="LGAUGE"> T  </i>
   <i type="int" name="MAGATOM">     0</i>
   <v name="MAGDIPOL">      0.00000000      0.00000000      0.00000000</v>
   <v name="AVECCONST">      0.00000000      0.00000000      0.00000000</v>
  </separator>
  <separator name="response functions" >
   <i type="logical" name="LADDER"> F  </i>
   <i type="logical" name="LRPAFORCE"> F  </i>
   <i type="logical" name="LFXC"> F  </i>
   <i type="logical" name="LHARTREE"> T  </i>
   <i type="int" name="IBSE">     0</i>
   <v type="int" name="KPOINT">    -1     0     0     0</v>
   <i type="logical" name="LTCTE"> F  </i>
   <i type="logical" name="LTETE"> F  </i>
   <i type="logical" name="LTRIPLET"> F  </i>
   <i type="logical" name="LFXCEPS"> F  </i>
   <i type="logical" name="LFXHEG"> F  </i>
   <i type="int" name="NATURALO">     2</i>
   <i type="logical" name="L2ORDER"> F  </i>
   <i type="logical" name="LMP2LT"> F  </i>
   <i type="logical" name="LUSEW"> F  </i>
   <i name="ENCUTGW">     -2.00000000</i>
   <i name="ENCUTGWSOFT">     -2.00000000</i>
   <i name="ENCUTLF">     -1.00000000</i>
   <i type="int" name="LMAXMP2">    -1</i>
   <i name="SCISSOR">      0.00000000</i>
   <i type="int" name="NOMEGA">     0</i>
   <i type="int" name="NOMEGAR">     0</i>
   <i type="int" name="NBANDSGW">    -1</i>
   <i type="int" name="NBANDSO">    -1</i>
   <i type="int" name="NBANDSV">    -1</i>
   <i type="int" name="NELM">   300</i>
   <i type="int" name="NELMHF">     1</i>
   <i type="int" name="DIM">     3</i>
   <i type="int" name="ANTIRES">     0</i>
   <i name="OMEGAMAX">    -30.00000000</i>
   <i name="OMEGAMIN">    -30.00000000</i>
   <i name="OMEGATL">   -200.00000000</i>
   <i type="int" name="OMEGAGRID">   140</i>
   <i name="CSHIFT">     -0.10000000</i>
   <i type="logical" name="SELFENERGY"> F  </i>
   <i type="logical" name="LSPECTRAL"> F  </i>
   <i type="logical" name="LSPECTRALGW"> F  </i>
   <i type="logical" name="LSINGLES"> F  </i>
   <i type="logical" name="LFERMIGW"> F  </i>
   <i type="logical" name="ODDONLYGW"> F  </i>
   <i type="logical" name="EVENONLYGW"> F  </i>
   <i type="int" name="NKREDLFX">     1</i>
   <i type="int" name="NKREDLFY">     1</i>
   <i type="int" name="NKREDLFZ">     1</i>
   <i type="int" name="MAXMEM">  2800</i>
   <i type="int" name="TELESCOPE">     0</i>
   <i type="int" name="TAUPAR">     1</i>
   <i type="int" name="OMEGAPAR">    -1</i>
   <i name="LAMBDA">      1.00000000</i>
  </separator>
  <separator name="External order field" >
   <i name="OFIELD_KAPPA">      0.00000000</i>
   <v name="OFIELD_K">      0.00000000      0.00000000      0.00000000</v>
   <i name="OFIELD_Q6_NEAR">      0.00000000</i>
   <i name="OFIELD_Q6_FAR">      0.00000000</i>
   <i name="OFIELD_A">      0.00000000</i>
  </separator>
 </parameters>
 <atominfo>
  <atoms>       6 </atoms>
  <types>       2 </types>
  <array name="atoms" >
   <dimension dim="1">ion</dimension>
   <field type="string">element</field>
   <field type="int">atomtype</field>
   <set>
    <rc><c>O </c><c>   1</c></rc>
    <rc><c>O </c><c>   1</c></rc>
    <rc><c>H </c><c>   2</c></rc>
    <rc><c>H </c><c>   2</c></rc>
    <rc><c>H </c><c>   2</c></rc>
    <rc><c>H </c><c>   2</c></rc>
   </set>
  </array>
  <array name="atomtypes" >
   <dimension dim="1">type</dimension>
   <field type="int">atomspertype</field>
   <field type="string">element</field>
   <field>mass</field>
   <field>valence</field>
   <field type="string">pseudopotential</field>
   <set>
    <rc><c>   2</c><c>O </c><c>     16.00000000</c><c>      6.00000000</c><c>  PAW_PBE O_h 06Feb2004                 </c></rc>
    <rc><c>   4</c><c>H </c><c>      1.00000000</c><c>      1.00000000</c><c>  PAW_PBE H_h 06Feb2004                 </c></rc>
   </set>
  </array>
 </atominfo>
 <structure name="initialpos" >
  <crystal>
   <varray name="basis" >
    <v>      30.00000000       0.00000000       0.00000000 </v>
    <v>       0.00000000      10.00000000       0.00000000 </v>
    <v>       0.00000000       0.00000000      10.00000000 </v>
   </varray>
   <i name="volume">   3000.00000000 </i>
   <varray name="rec_basis" >
    <v>       0.03333333       0.00000000       0.00000000 </v>
    <v>       0.00000000       0.10000000       0.00000000 </v>
    <v>       0.00000000       0.00000000       0.10000000 </v>
   </varray>
  </crystal>
  <varray name="positions" >
   <v>       0.09186896       0.15710957       0.17600000 </v>
   <v>       0.95513104       0.15710957       0.17600000 </v>
   <v>       0.10254413       0.25541218       0.17439231 </v>
   <v>       0.05847255       0.16672783       0.17649328 </v>
   <v>       0.94612303       0.09941802       0.25610440 </v>
   <v>       0.94624850       0.09907990       0.09607226 </v>
  </varray>
 </structure>
 <calculation>
  <scstep>
   <time name="dav">    3.21    3.23</time>
   <time name="total">    5.93    5.97</time>
   <energy>
    <i name="alphaZ">      0.21758540 </i>
    <i name="ewald">    410.14667296 </i>
    <i name="hartreedc">  -1136.06718015 </i>
    <i name="XCdc">     60.60702388 </i>
    <i name="pawpsdc">    697.41634940 </i>
    <i name="pawaedc">   -699.85762974 </i>
    <i name="eentropy">     -0.00000424 </i>
    <i name="bandstr">    -95.35482831 </i>
    <i name="atom">    914.70366869 </i>
    <i name="e_fr_energy">    151.81165789 </i>
    <i name="e_wo_entrp">    151.81166213 </i>
    <i name="e_0_energy">    151.81166001 </i>
   </energy>
  </scstep>
  <scstep>
   <time name="dav">    4.38    4.43</time>
   <time name="total">    4.38    4.43</time>
   <energy>
    <i name="e_fr_energy">     50.16438944 </i>
    <i name="e_wo_entrp">     50.16438944 </i>
    <i name="e_0_energy">     50.16438944 </i>
   </energy>
  </scstep>
  <scstep>
   <time name="dav">    4.09    4.10</time>
   <time name="total">    4.09    4.10</time>
   <energy>
    <i name="e_fr_energy">    -23.69172346 </i>
    <i name="e_wo_entrp">    -23.69172346 </i>
    <i name="e_0_energy">    -23.69172346 </i>
   </energy>
  </scstep>
  <scstep>
   <time name="dav">    3.19    3.20</time>
   <time name="total">    3.19    3.20</time>
   <energy>
    <i name="e_fr_energy">    -31.80704568 </i>
    <i name="e_wo_entrp">    -31.80704568 </i>
    <i name="e_0_energy">    -31.80704568 </i>
   </energy>
  </scstep>
  <scstep>
   <time name="dav">    3.49    3.49</time>
   <time name="total">    4.04    4.05</time>
   <energy>
    <i name="e_fr_energy">    -31.99787435 </i>
    <i name="e_wo_entrp">    -31.99787435 </i>
    <i name="e_0_energy">    -31.99787435 </i>
   </energy>
  </scstep>
  <scstep>
   <time name="diag">    0.68    0.68</time>
   <time name="diis">    3.60    3.61</time>
   <time name="orth">    0.02    0.02</time>
   <time name="total">    7.51    7.55</time>
   <energy>
    <i name="e_fr_energy">    -28.66202521 </i>
    <i name="e_wo_entrp">    -28.66202521 </i>
    <i name="e_0_energy">    -28.66202521 </i>
   </energy>
  </scstep>
  <scstep>
   <time name="diag">    0.66    0.66</time>
   <time name="diis">    4.26    4.27</time>
   <time name="orth">    0.02    0.02</time>
   <time name="total">    8.16    8.18</time>
   <energy>
    <i name="e_fr_energy">    -28.61986442 </i>
    <i name="e_wo_entrp">    -28.61986442 </i>
    <i name="e_0_energy">    -28.61986442 </i>
   </energy>
  </scstep>
  <scstep>
   <time name="diag">    0.67    0.67</time>
   <time name="diis">    3.56    3.57</time>
   <time name="orth">    0.02    0.02</time>
   <time name="total">    7.52    7.54</time>
   <energy>
    <i name="e_fr_energy">    -29.52810221 </i>
    <i name="e_wo_entrp">    -29.52810221 </i>
    <i name="e_0_energy">    -29.52810221 </i>
   </energy>
  </scstep>
  <scstep>
   <time name="diag">    0.67    0.67</time>
   <time name="diis">    3.61    3.61</time>
   <time name="orth">    0.02    0.02</time>
   <time name="total">    7.57    7.58</time>
   <energy>
    <i name="e_fr_energy">    -28.40269536 </i>
    <i name="e_wo_entrp">    -28.40269536 </i>
    <i name="e_0_energy">    -28.40269536 </i>
   </energy>
  </scstep>
  <scstep>
   <time name="diag">    0.67    0.67</time>
   <time name="diis">    4.25    4.26</time>
   <time name="orth">    0.02    0.02</time>
   <time name="total">    8.23    8.24</time>
   <energy>
    <i name="e_fr_energy">    -28.41145372 </i>
    <i name="e_wo_entrp">    -28.41145372 </i>
    <i name="e_0_energy">    -28.41145372 </i>
   </energy>
  </scstep>
  <scstep>
   <time name="diag">    0.67    0.67</time>
   <time name="diis">    3.71    3.72</time>
   <time name="orth">    0.02    0.02</time>
   <time name="total">    7.67    7.68</time>
   <energy>
    <i name="e_fr_energy">    -28.40872046 </i>
    <i name="e_wo_entrp">    -28.40872046 </i>
    <i name="e_0_energy">    -28.40872046 </i>
   </energy>
  </scstep>
  <scstep>
   <time name="diag">    0.67    0.67</time>
   <time name="diis">    3.44    3.44</time>
   <time name="orth">    0.02    0.02</time>
   <time name="total">    7.38    7.39</time>
   <energy>
    <i name="e_fr_energy">    -28.39964652 </i>
    <i name="e_wo_entrp">    -28.39964652 </i>
    <i name="e_0_energy">    -28.39964652 </i>
   </energy>
  </scstep>
  <scstep>
   <time name="diag">    0.67    0.67</time>
   <time name="diis">    4.25    4.28</time>
   <time name="orth">    0.02    0.02</time>
   <time name="total">    8.20    8.22</time>
   <energy>
    <i name="e_fr_energy">    -28.40144739 </i>
    <i name="e_wo_entrp">    -28.40144739 </i>
    <i name="e_0_energy">    -28.40144739 </i>
   </energy>
  </scstep>
  <scstep>
   <time name="diag">    0.67    0.67</time>
   <time name="diis">    3.76    3.76</time>
   <time name="orth">    0.02    0.02</time>
   <time name="total">    7.71    7.71</time>
   <energy>
    <i name="e_fr_energy">    -28.40679401 </i>
    <i name="e_wo_entrp">    -28.40679401 </i>
    <i name="e_0_energy">    -28.40679401 </i>
   </energy>
  </scstep>
  <scstep>
   <time name="diag">    0.66    0.66</time>
   <time name="diis">    3.30    3.30</time>
   <time name="orth">    0.02    0.02</time>
   <time name="total">    7.21    7.22</time>
   <energy>
    <i name="e_fr_energy">    -28.40866915 </i>
    <i name="e_wo_entrp">    -28.40866915 </i>
    <i name="e_0_energy">    -28.40866915 </i>
   </energy>
  </scstep>
  <scstep>
   <time name="diag">    0.67    0.67</time>
   <time name="diis">    4.15    4.17</time>
   <time name="orth">    0.02    0.02</time>
   <time name="total">    8.09    8.12</time>
   <energy>
    <i name="e_fr_energy">    -28.40912311 </i>
    <i name="e_wo_entrp">    -28.40912311 </i>
    <i name="e_0_energy">    -28.40912311 </i>
   </energy>
  </scstep>
  <scstep>
   <time name="diag">    0.66    0.66</time>
   <time name="diis">    3.43    3.43</time>
   <time name="orth">    0.02    0.02</time>
   <time name="total">    7.32    7.33</time>
   <energy>
    <i name="e_fr_energy">    -28.41127129 </i>
    <i name="e_wo_entrp">    -28.41127129 </i>
    <i name="e_0_energy">    -28.41127129 </i>
   </energy>
  </scstep>
  <scstep>
   <time name="diag">    0.67    0.67</time>
   <time name="diis">    4.19    4.19</time>
   <time name="orth">    0.02    0.02</time>
   <time name="total">    8.11    8.12</time>
   <energy>
    <i name="e_fr_energy">    -28.41181108 </i>
    <i name="e_wo_entrp">    -28.41181108 </i>
    <i name="e_0_energy">    -28.41181108 </i>
   </energy>
  </scstep>
  <scstep>
   <time name="diag">    0.67    0.67</time>
   <time name="diis">    3.63    3.63</time>
   <time name="orth">    0.02    0.02</time>
   <time name="total">    7.57    7.58</time>
   <energy>
    <i name="e_fr_energy">    -28.41159676 </i>
    <i name="e_wo_entrp">    -28.41159676 </i>
    <i name="e_0_energy">    -28.41159676 </i>
   </energy>
  </scstep>
  <scstep>
   <time name="diag">    0.66    0.67</time>
   <time name="diis">    4.02    4.02</time>
   <time name="orth">    0.02    0.02</time>
   <time name="total">    7.94    7.95</time>
   <energy>
    <i name="e_fr_energy">    -28.41164681 </i>
    <i name="e_wo_entrp">    -28.41164681 </i>
    <i name="e_0_energy">    -28.41164681 </i>
   </energy>
  </scstep>
  <scstep>
   <time name="diag">    0.67    0.67</time>
   <time name="diis">    3.29    3.30</time>
   <time name="orth">    0.02    0.02</time>
   <time name="total">    7.24    7.25</time>
   <energy>
    <i name="e_fr_energy">    -28.41114714 </i>
    <i name="e_wo_entrp">    -28.41114714 </i>
    <i name="e_0_energy">    -28.41114714 </i>
   </energy>
  </scstep>
  <scstep>
   <time name="diag">    0.66    0.66</time>
   <time name="diis">    3.86    3.87</time>
   <time name="orth">    0.02    0.02</time>
   <time name="total">    7.80    7.81</time>
   <energy>
    <i name="e_fr_energy">    -28.41087372 </i>
    <i name="e_wo_entrp">    -28.41087372 </i>
    <i name="e_0_energy">    -28.41087372 </i>
   </energy>
  </scstep>
  <scstep>
   <time name="diag">    0.66    0.66</time>
   <time name="diis">    3.50    3.50</time>
   <time name="orth">    0.02    0.02</time>
   <time name="total">    7.40    7.46</time>
   <energy>
    <i name="e_fr_energy">    -28.41108117 </i>
    <i name="e_wo_entrp">    -28.41108117 </i>
    <i name="e_0_energy">    -28.41108117 </i>
   </energy>
  </scstep>
  <scstep>
   <time name="diag">    0.66    0.66</time>
   <time name="diis">    3.55    3.58</time>
   <time name="orth">    0.02    0.02</time>
   <time name="total">    7.57    7.63</time>
   <energy>
    <i name="e_fr_energy">    -28.41115760 </i>
    <i name="e_wo_entrp">    -28.41115760 </i>
    <i name="e_0_energy">    -28.41115760 </i>
   </energy>
  </scstep>
  <scstep>
   <time name="diag">    0.67    0.67</time>
   <time name="diis">    3.44    3.44</time>
   <time name="orth">    0.02    0.02</time>
   <time name="total">    7.39    7.40</time>
   <energy>
    <i name="e_fr_energy">    -28.41141212 </i>
    <i name="e_wo_entrp">    -28.41141212 </i>
    <i name="e_0_energy">    -28.41141212 </i>
   </energy>
  </scstep>
  <scstep>
   <time name="diag">    0.66    0.66</time>
   <time name="diis">    2.99    2.99</time>
   <time name="orth">    0.02    0.02</time>
   <time name="total">    6.94    6.95</time>
   <energy>
    <i name="e_fr_energy">    -28.41193167 </i>
    <i name="e_wo_entrp">    -28.41193167 </i>
    <i name="e_0_energy">    -28.41193167 </i>
   </energy>
  </scstep>
  <scstep>
   <time name="diag">    0.66    0.66</time>
   <time name="diis">    3.65    3.65</time>
   <time name="orth">    0.02    0.02</time>
   <time name="total">    7.63    7.64</time>
   <energy>
    <i name="e_fr_energy">    -28.41244580 </i>
    <i name="e_wo_entrp">    -28.41244580 </i>
    <i name="e_0_energy">    -28.41244580 </i>
   </energy>
  </scstep>
  <scstep>
   <time name="diag">    0.67    0.67</time>
   <time name="diis">    3.51    3.51</time>
   <time name="orth">    0.02    0.02</time>
   <time name="total">    7.52    7.52</time>
   <energy>
    <i name="e_fr_energy">    -28.41292402 </i>
    <i name="e_wo_entrp">    -28.41292402 </i>
    <i name="e_0_energy">    -28.41292402 </i>
   </energy>
  </scstep>
  <scstep>
   <time name="diag">    0.66    0.66</time>
   <time name="diis">    3.79    3.79</time>
   <time name="orth">    0.02    0.02</time>
   <time name="total">    7.78    7.79</time>
   <energy>
    <i name="e_fr_energy">    -28.41311002 </i>
    <i name="e_wo_entrp">    -28.41311002 </i>
    <i name="e_0_energy">    -28.41311002 </i>
   </energy>
  </scstep>
  <scstep>
   <time name="diag">    0.66    0.67</time>
   <time name="diis">    3.52    3.53</time>
   <time name="orth">    0.02    0.02</time>
   <time name="total">    7.55    7.55</time>
   <energy>
    <i name="e_fr_energy">    -28.41325743 </i>
    <i name="e_wo_entrp">    -28.41325743 </i>
    <i name="e_0_energy">    -28.41325743 </i>
   </energy>
  </scstep>
  <scstep>
   <time name="diag">    0.66    0.66</time>
   <time name="diis">    4.08    4.09</time>
   <time name="orth">    0.02    0.02</time>
   <time name="total">    8.10    8.10</time>
   <energy>
    <i name="e_fr_energy">    -28.41328885 </i>
    <i name="e_wo_entrp">    -28.41328885 </i>
    <i name="e_0_energy">    -28.41328885 </i>
   </energy>
  </scstep>
  <scstep>
   <time name="diag">    0.66    0.66</time>
   <time name="diis">    3.42    3.43</time>
   <time name="orth">    0.02    0.02</time>
   <time name="total">    7.49    7.54</time>
   <energy>
    <i name="e_fr_energy">    -28.41331417 </i>
    <i name="e_wo_entrp">    -28.41331417 </i>
    <i name="e_0_energy">    -28.41331417 </i>
   </energy>
  </scstep>
  <scstep>
   <time name="diag">    0.66    0.67</time>
   <time name="diis">    4.13    4.13</time>
   <time name="orth">    0.02    0.02</time>
   <time name="total">    8.17    8.18</time>
   <energy>
    <i name="e_fr_energy">    -28.41332188 </i>
    <i name="e_wo_entrp">    -28.41332188 </i>
    <i name="e_0_energy">    -28.41332188 </i>
   </energy>
  </scstep>
  <scstep>
   <time name="diag">    0.69    0.69</time>
   <time name="diis">    3.56    3.57</time>
   <time name="orth">    0.02    0.02</time>
   <time name="total">    7.67    7.67</time>
   <energy>
    <i name="e_fr_energy">    -28.41332840 </i>
    <i name="e_wo_entrp">    -28.41332840 </i>
    <i name="e_0_energy">    -28.41332840 </i>
   </energy>
  </scstep>
  <scstep>
   <time name="diag">    0.66    0.66</time>
   <time name="diis">    3.09    3.10</time>
   <time name="orth">    0.02    0.02</time>
   <time name="total">    7.16    7.16</time>
   <energy>
    <i name="e_fr_energy">    -28.41333138 </i>
    <i name="e_wo_entrp">    -28.41333138 </i>
    <i name="e_0_energy">    -28.41333138 </i>
   </energy>
  </scstep>
  <scstep>
   <time name="diag">    0.66    0.66</time>
   <time name="diis">    3.32    3.33</time>
   <time name="orth">    0.02    0.02</time>
   <time name="total">    7.44    7.45</time>
   <energy>
    <i name="e_fr_energy">    -28.41333226 </i>
    <i name="e_wo_entrp">    -28.41333226 </i>
    <i name="e_0_energy">    -28.41333226 </i>
   </energy>
  </scstep>
  <scstep>
   <time name="diag">    0.66    0.66</time>
   <time name="diis">    3.42    3.42</time>
   <time name="orth">    0.02    0.02</time>
   <time name="total">    7.55    7.56</time>
   <energy>
    <i name="e_fr_energy">    -28.41333288 </i>
    <i name="e_wo_entrp">    -28.41333288 </i>
    <i name="e_0_energy">    -28.41333288 </i>
   </energy>
  </scstep>
  <scstep>
   <time name="diag">    0.66    0.67</time>
   <time name="diis">    2.63    2.63</time>
   <time name="orth">    0.02    0.02</time>
   <time name="total">    6.79    6.80</time>
   <energy>
    <i name="e_fr_energy">    -28.41333310 </i>
    <i name="e_wo_entrp">    -28.41333310 </i>
    <i name="e_0_energy">    -28.41333310 </i>
   </energy>
  </scstep>
  <scstep>
   <time name="diag">    0.66    0.66</time>
   <time name="diis">    2.75    2.75</time>
   <time name="orth">    0.02    0.02</time>
   <time name="total">    6.91    6.92</time>
   <energy>
    <i name="e_fr_energy">    -28.41333314 </i>
    <i name="e_wo_entrp">    -28.41333314 </i>
    <i name="e_0_energy">    -28.41333314 </i>
   </energy>
  </scstep>
  <scstep>
   <time name="diag">    0.70    0.70</time>
   <time name="diis">    2.54    2.57</time>
   <time name="orth">    0.02    0.02</time>
   <time name="total">    6.76    6.82</time>
   <energy>
    <i name="e_fr_energy">    -28.41333325 </i>
    <i name="e_wo_entrp">    -28.41333325 </i>
    <i name="e_0_energy">    -28.41333325 </i>
   </energy>
  </scstep>
  <scstep>
   <time name="diag">    0.66    0.66</time>
   <time name="diis">    2.51    2.51</time>
   <time name="orth">    0.02    0.02</time>
   <time name="total">    6.69    6.71</time>
   <energy>
    <i name="e_fr_energy">    -28.41333338 </i>
    <i name="e_wo_entrp">    -28.41333338 </i>
    <i name="e_0_energy">    -28.41333338 </i>
   </energy>
  </scstep>
  <scstep>
   <time name="diag">    0.66    0.66</time>
   <time name="diis">    2.59    2.59</time>
   <time name="orth">    0.02    0.02</time>
   <time name="total">    6.80    6.80</time>
   <energy>
    <i name="e_fr_energy">    -28.41333343 </i>
    <i name="e_wo_entrp">    -28.41333343 </i>
    <i name="e_0_energy">    -28.41333343 </i>
   </energy>
  </scstep>
  <scstep>
   <time name="diag">    0.66    0.66</time>
   <time name="diis">    2.63    2.63</time>
   <time name="orth">    0.02    0.02</time>
   <time name="total">    6.83    6.84</time>
   <energy>
    <i name="e_fr_energy">    -28.41333347 </i>
    <i name="e_wo_entrp">    -28.41333347 </i>
    <i name="e_0_energy">    -28.41333347 </i>
   </energy>
  </scstep>
  <scstep>
   <time name="diag">    0.66    0.66</time>
   <time name="diis">    2.45    2.45</time>
   <time name="orth">    0.02    0.02</time>
   <time name="total">    6.64    6.64</time>
   <energy>
    <i name="e_fr_energy">    -28.41333356 </i>
    <i name="e_wo_entrp">    -28.41333356 </i>
    <i name="e_0_energy">    -28.41333356 </i>
   </energy>
  </scstep>
  <scstep>
   <time name="diag">    0.66    0.66</time>
   <time name="diis">    2.61    2.61</time>
   <time name="orth">    0.02    0.02</time>
   <time name="total">    6.82    6.83</time>
   <energy>
    <i name="e_fr_energy">    -28.41333363 </i>
    <i name="e_wo_entrp">    -28.41333363 </i>
    <i name="e_0_energy">    -28.41333363 </i>
   </energy>
  </scstep>
  <scstep>
   <time name="diag">    0.66    0.66</time>
   <time name="diis">    2.65    2.65</time>
   <time name="orth">    0.02    0.02</time>
   <time name="total">    6.88    6.90</time>
   <energy>
    <i name="e_fr_energy">    -28.41333376 </i>
    <i name="e_wo_entrp">    -28.41333376 </i>
    <i name="e_0_energy">    -28.41333376 </i>
   </energy>
  </scstep>
  <scstep>
   <time name="diag">    0.66    0.66</time>
   <time name="diis">    2.46    2.46</time>
   <time name="orth">    0.02    0.02</time>
   <time name="total">    6.69    6.70</time>
   <energy>
    <i name="e_fr_energy">    -28.41333384 </i>
    <i name="e_wo_entrp">    -28.41333384 </i>
    <i name="e_0_energy">    -28.41333384 </i>
   </energy>
  </scstep>
  <scstep>
   <time name="diag">    0.66    0.66</time>
   <time name="diis">    2.51    2.52</time>
   <time name="orth">    0.02    0.02</time>
   <time name="total">    6.77    6.77</time>
   <energy>
    <i name="e_fr_energy">    -28.41333392 </i>
    <i name="e_wo_entrp">    -28.41333392 </i>
    <i name="e_0_energy">    -28.41333392 </i>
   </energy>
  </scstep>
  <scstep>
   <time name="diag">    0.63    0.68</time>
   <time name="diis">    2.79    2.79</time>
   <time name="orth">    0.02    0.02</time>
   <time name="total">    7.07    7.14</time>
   <energy>
    <i name="e_fr_energy">    -28.41333394 </i>
    <i name="e_wo_entrp">    -28.41333394 </i>
    <i name="e_0_energy">    -28.41333394 </i>
   </energy>
  </scstep>
  <scstep>
   <time name="diag">    0.66    0.66</time>
   <time name="diis">    2.83    2.83</time>
   <time name="orth">    0.02    0.02</time>
   <time name="total">    7.22    7.23</time>
   <energy>
    <i name="e_fr_energy">    -28.41333395 </i>
    <i name="e_wo_entrp">    -28.41333395 </i>
    <i name="e_0_energy">    -28.41333395 </i>
   </energy>
  </scstep>
  <scstep>
   <time name="diag">    0.66    0.66</time>
   <time name="diis">    2.34    2.34</time>
   <time name="orth">    0.02    0.02</time>
   <time name="total">    5.76    5.77</time>
   <energy>
    <i name="alphaZ">      0.21758540 </i>
    <i name="ewald">    410.14667296 </i>
    <i name="hartreedc">  -1200.22532098 </i>
    <i name="XCdc">     63.97440639 </i>
    <i name="pawpsdc">   5041.44881940 </i>
    <i name="pawaedc">  -5044.33640429 </i>
    <i name="eentropy">     -0.00000000 </i>
    <i name="bandstr">   -214.34276152 </i>
    <i name="atom">    914.70366869 </i>
    <i name="e_fr_energy">    -28.41333396 </i>
    <i name="e_wo_entrp">    -28.41333396 </i>
    <i name="e_0_energy">    -28.41333396 </i>
   </energy>
  </scstep>
  <structure>
   <crystal>
    <varray name="basis" >
     <v>      30.00000000       0.00000000       0.00000000 </v>
     <v>       0.00000000      10.00000000       0.00000000 </v>
     <v>       0.00000000       0.00000000      10.00000000 </v>
    </varray>
    <i name="volume">   3000.00000000 </i>
    <varray name="rec_basis" >
     <v>       0.03333333       0.00000000       0.00000000 </v>
     <v>       0.00000000       0.10000000       0.00000000 </v>
     <v>       0.00000000       0.00000000       0.10000000 </v>
    </varray>
   </crystal>
   <varray name="positions" >
    <v>       0.09186896       0.15710957       0.17600000 </v>
    <v>       0.95513104       0.15710957       0.17600000 </v>
    <v>       0.10254413       0.25541218       0.17439231 </v>
    <v>       0.05847255       0.16672783       0.17649328 </v>
    <v>       0.94612303       0.09941802       0.25610440 </v>
    <v>       0.94624850       0.09907990       0.09607226 </v>
   </varray>
  </structure>
  <varray name="forces" >
   <v>      -0.68430666       2.46725608      -0.03094052 </v>
   <v>      -1.00386152      -2.32411922       0.01542002 </v>
   <v>      -0.81639468      -2.37449879       0.03916380 </v>
   <v>       1.41726340      -0.09412274      -0.00848684 </v>
   <v>       0.54945730       1.16332595      -1.71793890 </v>
   <v>       0.53784216       1.16215871       1.70278243 </v>
  </varray>
  <varray name="stress" >
   <v>      -1.26131610      -0.69137626       0.01624748 </v>
   <v>      -0.69137626      -1.99619551       0.02168631 </v>
   <v>       0.01624747       0.02168630      -1.47500184 </v>
  </varray>
  <energy>
   <i name="e_fr_energy">    -28.41333396 </i>
   <i name="e_wo_entrp">    -28.41333396 </i>
   <i name="e_0_energy">     -0.00000000 </i>
  </energy>
  <time name="totalsc">  368.99  369.89</time>
  <eigenvalues>
   <array>
    <dimension dim="1">band</dimension>
    <dimension dim="2">kpoint</dimension>
    <dimension dim="3">spin</dimension>
    <field>eigene</field>
    <field>occ</field>
    <set>
     <set comment="spin 1">
      <set comment="kpoint 1">
       <r>  -25.0322    1.0000 </r>
       <r>  -24.3965    1.0000 </r>
       <r>  -12.8304    1.0000 </r>
       <r>  -12.1750    1.0000 </r>
       <r>   -9.6149    1.0000 </r>
       <r>   -8.9563    1.0000 </r>
       <r>   -7.4180    1.0000 </r>
       <r>   -6.7481    1.0000 </r>
       <r>   -1.4244    0.0000 </r>
       <r>   -0.5848    0.0000 </r>
       <r>    0.1196    0.0000 </r>
       <r>    0.4418    0.0000 </r>
      </set>
      <set comment="kpoint 2">
       <r>  -25.0322    1.0000 </r>
       <r>  -24.3965    1.0000 </r>
       <r>  -12.8304    1.0000 </r>
       <r>  -12.1750    1.0000 </r>
       <r>   -9.6149    1.0000 </r>
       <r>   -8.9563    1.0000 </r>
       <r>   -7.4180    1.0000 </r>
       <r>   -6.7481    1.0000 </r>
       <r>   -1.4244    0.0000 </r>
       <r>   -0.5848    0.0000 </r>
       <r>    0.1240    0.0000 </r>
       <r>    0.5106    0.0000 </r>
      </set>
     </set>
    </set>
   </array>
  </eigenvalues>
  <separator name="orbital magnetization" >
   <v name="MAGDIPOLOUT">      0.00000000      0.00000000      0.00000000</v>
  </separator>
  <dos>
   <i name="efermi">     -6.44825312 </i>
   <total>
    <array>
     <dimension dim="1">gridpoints</dimension>
     <dimension dim="2">spin</dimension>
     <field>energy</field>
     <field>total</field>
     <field>integrated</field>
     <set>
      <set comment="spin 1">
       <r>   -26.3093     0.0000     0.0000 </r>
       <r>   -26.2157     0.0000     0.0000 </r>
       <r>   -26.1220     0.0000     0.0000 </r>
       <r>   -26.0284     0.0000     0.0000 </r>
       <r>   -25.9347     0.0000     0.0000 </r>
       <r>   -25.8411     0.0000     0.0000 </r>
       <r>   -25.7474     0.0000     0.0000 </r>
       <r>   -25.6537     0.0000     0.0000 </r>
       <r>   -25.5601     0.0000     0.0000 </r>
       <r>   -25.4664     0.0000     0.0000 </r>
       <r>   -25.3728     0.0000     0.0000 </r>
       <r>   -25.2791     0.0000     0.0000 </r>
       <r>   -25.1855     0.0002     0.0000 </r>
       <r>   -25.0918     0.9805     0.0918 </r>
       <r>   -24.9981    16.7926     1.6646 </r>
       <r>   -24.9045     3.5780     1.9997 </r>
       <r>   -24.8108     0.0032     2.0000 </r>
       <r>   -24.7172     0.0000     2.0000 </r>
       <r>   -24.6235     0.0000     2.0000 </r>
       <r>   -24.5299     0.0017     2.0002 </r>
       <r>   -24.4362     2.7851     2.2610 </r>
       <r>   -24.3425    17.2089     3.8727 </r>
       <r>   -24.2489     1.3585     4.0000 </r>
       <r>   -24.1552     0.0003     4.0000 </r>
       <r>   -24.0616     0.0000     4.0000 </r>
       <r>   -23.9679     0.0000     4.0000 </r>
       <r>   -23.8743     0.0000     4.0000 </r>
       <r>   -23.7806     0.0000     4.0000 </r>
       <r>   -23.6870     0.0000     4.0000 </r>
       <r>   -23.5933     0.0000     4.0000 </r>
       <r>   -23.4996     0.0000     4.0000 </r>
       <r>   -23.4060     0.0000     4.0000 </r>
       <r>   -23.3123     0.0000     4.0000 </r>
       <r>   -23.2187     0.0000     4.0000 </r>
       <r>   -23.1250     0.0000     4.0000 </r>
       <r>   -23.0314     0.0000     4.0000 </r>
       <r>   -22.9377     0.0000     4.0000 </r>
       <r>   -22.8440     0.0000     4.0000 </r>
       <r>   -22.7504     0.0000     4.0000 </r>
       <r>   -22.6567     0.0000     4.0000 </r>
       <r>   -22.5631     0.0000     4.0000 </r>
       <r>   -22.4694     0.0000     4.0000 </r>
       <r>   -22.3758     0.0000     4.0000 </r>
       <r>   -22.2821     0.0000     4.0000 </r>
       <r>   -22.1884     0.0000     4.0000 </r>
       <r>   -22.0948     0.0000     4.0000 </r>
       <r>   -22.0011     0.0000     4.0000 </r>
       <r>   -21.9075     0.0000     4.0000 </r>
       <r>   -21.8138     0.0000     4.0000 </r>
       <r>   -21.7202     0.0000     4.0000 </r>
       <r>   -21.6265     0.0000     4.0000 </r>
       <r>   -21.5328     0.0000     4.0000 </r>
       <r>   -21.4392     0.0000     4.0000 </r>
       <r>   -21.3455     0.0000     4.0000 </r>
       <r>   -21.2519     0.0000     4.0000 </r>
       <r>   -21.1582     0.0000     4.0000 </r>
       <r>   -21.0646     0.0000     4.0000 </r>
       <r>   -20.9709     0.0000     4.0000 </r>
       <r>   -20.8772     0.0000     4.0000 </r>
       <r>   -20.7836     0.0000     4.0000 </r>
       <r>   -20.6899     0.0000     4.0000 </r>
       <r>   -20.5963     0.0000     4.0000 </r>
       <r>   -20.5026     0.0000     4.0000 </r>
       <r>   -20.4090     0.0000     4.0000 </r>
       <r>   -20.3153     0.0000     4.0000 </r>
       <r>   -20.2217     0.0000     4.0000 </r>
       <r>   -20.1280     0.0000     4.0000 </r>
       <r>   -20.0343     0.0000     4.0000 </r>
       <r>   -19.9407     0.0000     4.0000 </r>
       <r>   -19.8470     0.0000     4.0000 </r>
       <r>   -19.7534     0.0000     4.0000 </r>
       <r>   -19.6597     0.0000     4.0000 </r>
       <r>   -19.5661     0.0000     4.0000 </r>
       <r>   -19.4724     0.0000     4.0000 </r>
       <r>   -19.3787     0.0000     4.0000 </r>
       <r>   -19.2851     0.0000     4.0000 </r>
       <r>   -19.1914     0.0000     4.0000 </r>
       <r>   -19.0978     0.0000     4.0000 </r>
       <r>   -19.0041     0.0000     4.0000 </r>
       <r>   -18.9105     0.0000     4.0000 </r>
       <r>   -18.8168     0.0000     4.0000 </r>
       <r>   -18.7231     0.0000     4.0000 </r>
       <r>   -18.6295     0.0000     4.0000 </r>
       <r>   -18.5358     0.0000     4.0000 </r>
       <r>   -18.4422     0.0000     4.0000 </r>
       <r>   -18.3485     0.0000     4.0000 </r>
       <r>   -18.2549     0.0000     4.0000 </r>
       <r>   -18.1612     0.0000     4.0000 </r>
       <r>   -18.0675     0.0000     4.0000 </r>
       <r>   -17.9739     0.0000     4.0000 </r>
       <r>   -17.8802     0.0000     4.0000 </r>
       <r>   -17.7866     0.0000     4.0000 </r>
       <r>   -17.6929     0.0000     4.0000 </r>
       <r>   -17.5993     0.0000     4.0000 </r>
       <r>   -17.5056     0.0000     4.0000 </r>
       <r>   -17.4119     0.0000     4.0000 </r>
       <r>   -17.3183     0.0000     4.0000 </r>
       <r>   -17.2246     0.0000     4.0000 </r>
       <r>   -17.1310     0.0000     4.0000 </r>
       <r>   -17.0373     0.0000     4.0000 </r>
       <r>   -16.9437     0.0000     4.0000 </r>
       <r>   -16.8500     0.0000     4.0000 </r>
       <r>   -16.7564     0.0000     4.0000 </r>
       <r>   -16.6627     0.0000     4.0000 </r>
       <r>   -16.5690     0.0000     4.0000 </r>
       <r>   -16.4754     0.0000     4.0000 </r>
       <r>   -16.3817     0.0000     4.0000 </r>
       <r>   -16.2881     0.0000     4.0000 </r>
       <r>   -16.1944     0.0000     4.0000 </r>
       <r>   -16.1008     0.0000     4.0000 </r>
       <r>   -16.0071     0.0000     4.0000 </r>
       <r>   -15.9134     0.0000     4.0000 </r>
       <r>   -15.8198     0.0000     4.0000 </r>
       <r>   -15.7261     0.0000     4.0000 </r>
       <r>   -15.6325     0.0000     4.0000 </r>
       <r>   -15.5388     0.0000     4.0000 </r>
       <r>   -15.4452     0.0000     4.0000 </r>
       <r>   -15.3515     0.0000     4.0000 </r>
       <r>   -15.2578     0.0000     4.0000 </r>
       <r>   -15.1642     0.0000     4.0000 </r>
       <r>   -15.0705     0.0000     4.0000 </r>
       <r>   -14.9769     0.0000     4.0000 </r>
       <r>   -14.8832     0.0000     4.0000 </r>
       <r>   -14.7896     0.0000     4.0000 </r>
       <r>   -14.6959     0.0000     4.0000 </r>
       <r>   -14.6022     0.0000     4.0000 </r>
       <r>   -14.5086     0.0000     4.0000 </r>
       <r>   -14.4149     0.0000     4.0000 </r>
       <r>   -14.3213     0.0000     4.0000 </r>
       <r>   -14.2276     0.0000     4.0000 </r>
       <r>   -14.1340     0.0000     4.0000 </r>
       <r>   -14.0403     0.0000     4.0000 </r>
       <r>   -13.9466     0.0000     4.0000 </r>
       <r>   -13.8530     0.0000     4.0000 </r>
       <r>   -13.7593     0.0000     4.0000 </r>
       <r>   -13.6657     0.0000     4.0000 </r>
       <r>   -13.5720     0.0000     4.0000 </r>
       <r>   -13.4784     0.0000     4.0000 </r>
       <r>   -13.3847     0.0000     4.0000 </r>
       <r>   -13.2911     0.0000     4.0000 </r>
       <r>   -13.1974     0.0000     4.0000 </r>
       <r>   -13.1037     0.0000     4.0000 </r>
       <r>   -13.0101     0.0000     4.0000 </r>
       <r>   -12.9164     0.1595     4.0149 </r>
       <r>   -12.8228    12.3368     5.1704 </r>
       <r>   -12.7291     8.8136     5.9958 </r>
       <r>   -12.6355     0.0446     6.0000 </r>
       <r>   -12.5418     0.0000     6.0000 </r>
       <r>   -12.4481     0.0000     6.0000 </r>
       <r>   -12.3545     0.0000     6.0000 </r>
       <r>   -12.2608     0.1618     6.0152 </r>
       <r>   -12.1672    12.3773     7.1744 </r>
       <r>   -12.0735     8.7715     7.9959 </r>
       <r>   -11.9799     0.0439     8.0000 </r>
       <r>   -11.8862     0.0000     8.0000 </r>
       <r>   -11.7925     0.0000     8.0000 </r>
       <r>   -11.6989     0.0000     8.0000 </r>
       <r>   -11.6052     0.0000     8.0000 </r>
       <r>   -11.5116     0.0000     8.0000 </r>
       <r>   -11.4179     0.0000     8.0000 </r>
       <r>   -11.3243     0.0000     8.0000 </r>
       <r>   -11.2306     0.0000     8.0000 </r>
       <r>   -11.1369     0.0000     8.0000 </r>
       <r>   -11.0433     0.0000     8.0000 </r>
       <r>   -10.9496     0.0000     8.0000 </r>
       <r>   -10.8560     0.0000     8.0000 </r>
       <r>   -10.7623     0.0000     8.0000 </r>
       <r>   -10.6687     0.0000     8.0000 </r>
       <r>   -10.5750     0.0000     8.0000 </r>
       <r>   -10.4813     0.0000     8.0000 </r>
       <r>   -10.3877     0.0000     8.0000 </r>
       <r>   -10.2940     0.0000     8.0000 </r>
       <r>   -10.2004     0.0000     8.0000 </r>
       <r>   -10.1067     0.0000     8.0000 </r>
       <r>   -10.0131     0.0000     8.0000 </r>
       <r>    -9.9194     0.0000     8.0000 </r>
       <r>    -9.8258     0.0000     8.0000 </r>
       <r>    -9.7321     0.0098     8.0009 </r>
       <r>    -9.6384     5.3873     8.5055 </r>
       <r>    -9.5448    15.4519     9.9526 </r>
       <r>    -9.4511     0.5056    10.0000 </r>
       <r>    -9.3575     0.0000    10.0000 </r>
       <r>    -9.2638     0.0000    10.0000 </r>
       <r>    -9.1702     0.0000    10.0000 </r>
       <r>    -9.0765     0.0072    10.0007 </r>
       <r>    -8.9828     4.8324    10.4533 </r>
       <r>    -8.8892    15.9004    11.9424 </r>
       <r>    -8.7955     0.6145    12.0000 </r>
       <r>    -8.7019     0.0001    12.0000 </r>
       <r>    -8.6082     0.0000    12.0000 </r>
       <r>    -8.5146     0.0000    12.0000 </r>
       <r>    -8.4209     0.0000    12.0000 </r>
       <r>    -8.3272     0.0000    12.0000 </r>
       <r>    -8.2336     0.0000    12.0000 </r>
       <r>    -8.1399     0.0000    12.0000 </r>
       <r>    -8.0463     0.0000    12.0000 </r>
       <r>    -7.9526     0.0000    12.0000 </r>
       <r>    -7.8590     0.0000    12.0000 </r>
       <r>    -7.7653     0.0000    12.0000 </r>
       <r>    -7.6716     0.0000    12.0000 </r>
       <r>    -7.5780     0.0001    12.0000 </r>
       <r>    -7.4843     0.6490    12.0608 </r>
       <r>    -7.3907    16.0188    13.5611 </r>
       <r>    -7.2970     4.6802    13.9994 </r>
       <r>    -7.2034     0.0066    14.0000 </r>
       <r>    -7.1097     0.0000    14.0000 </r>
       <r>    -7.0160     0.0000    14.0000 </r>
       <r>    -6.9224     0.0000    14.0000 </r>
       <r>    -6.8287     0.2414    14.0226 </r>
       <r>    -6.7351    13.5102    15.2879 </r>
       <r>    -6.6414     7.5758    15.9975 </r>
       <r>    -6.5478     0.0272    16.0000 </r>
       <r>    -6.4541     0.0000    16.0000 </r>
       <r>    -6.3604     0.0000    16.0000 </r>
       <r>    -6.2668     0.0000    16.0000 </r>
       <r>    -6.1731     0.0000    16.0000 </r>
       <r>    -6.0795     0.0000    16.0000 </r>
       <r>    -5.9858     0.0000    16.0000 </r>
       <r>    -5.8922     0.0000    16.0000 </r>
       <r>    -5.7985     0.0000    16.0000 </r>
       <r>    -5.7049     0.0000    16.0000 </r>
       <r>    -5.6112     0.0000    16.0000 </r>
       <r>    -5.5175     0.0000    16.0000 </r>
       <r>    -5.4239     0.0000    16.0000 </r>
       <r>    -5.3302     0.0000    16.0000 </r>
       <r>    -5.2366     0.0000    16.0000 </r>
       <r>    -5.1429     0.0000    16.0000 </r>
       <r>    -5.0493     0.0000    16.0000 </r>
       <r>    -4.9556     0.0000    16.0000 </r>
       <r>    -4.8619     0.0000    16.0000 </r>
       <r>    -4.7683     0.0000    16.0000 </r>
       <r>    -4.6746     0.0000    16.0000 </r>
       <r>    -4.5810     0.0000    16.0000 </r>
       <r>    -4.4873     0.0000    16.0000 </r>
       <r>    -4.3937     0.0000    16.0000 </r>
       <r>    -4.3000     0.0000    16.0000 </r>
       <r>    -4.2063     0.0000    16.0000 </r>
       <r>    -4.1127     0.0000    16.0000 </r>
       <r>    -4.0190     0.0000    16.0000 </r>
       <r>    -3.9254     0.0000    16.0000 </r>
       <r>    -3.8317     0.0000    16.0000 </r>
       <r>    -3.7381     0.0000    16.0000 </r>
       <r>    -3.6444     0.0000    16.0000 </r>
       <r>    -3.5507     0.0000    16.0000 </r>
       <r>    -3.4571     0.0000    16.0000 </r>
       <r>    -3.3634     0.0000    16.0000 </r>
       <r>    -3.2698     0.0000    16.0000 </r>
       <r>    -3.1761     0.0000    16.0000 </r>
       <r>    -3.0825     0.0000    16.0000 </r>
       <r>    -2.9888     0.0000    16.0000 </r>
       <r>    -2.8951     0.0000    16.0000 </r>
       <r>    -2.8015     0.0000    16.0000 </r>
       <r>    -2.7078     0.0000    16.0000 </r>
       <r>    -2.6142     0.0000    16.0000 </r>
       <r>    -2.5205     0.0000    16.0000 </r>
       <r>    -2.4269     0.0000    16.0000 </r>
       <r>    -2.3332     0.0000    16.0000 </r>
       <r>    -2.2396     0.0000    16.0000 </r>
       <r>    -2.1459     0.0000    16.0000 </r>
       <r>    -2.0522     0.0000    16.0000 </r>
       <r>    -1.9586     0.0000    16.0000 </r>
       <r>    -1.8649     0.0000    16.0000 </r>
       <r>    -1.7713     0.0000    16.0000 </r>
       <r>    -1.6776     0.0000    16.0000 </r>
       <r>    -1.5840     0.0001    16.0000 </r>
       <r>    -1.4903     0.6668    16.0625 </r>
       <r>    -1.3966    16.0763    17.5681 </r>
       <r>    -1.3030     4.6051    17.9994 </r>
       <r>    -1.2093     0.0063    18.0000 </r>
       <r>    -1.1157     0.0000    18.0000 </r>
       <r>    -1.0220     0.0000    18.0000 </r>
       <r>    -0.9284     0.0000    18.0000 </r>
       <r>    -0.8347     0.0000    18.0000 </r>
       <r>    -0.7410     0.0001    18.0000 </r>
       <r>    -0.6474     0.8197    18.0768 </r>
       <r>    -0.5537    16.4857    19.6208 </r>
       <r>    -0.4601     4.0446    19.9996 </r>
       <r>    -0.3664     0.0045    20.0000 </r>
       <r>    -0.2728     0.0000    20.0000 </r>
       <r>    -0.1791     0.0000    20.0000 </r>
       <r>    -0.0854     0.0000    20.0000 </r>
       <r>     0.0082     0.0143    20.0013 </r>
       <r>     0.1019     6.1105    20.5736 </r>
       <r>     0.1955    14.8301    21.9626 </r>
       <r>     0.2892     0.3997    22.0000 </r>
       <r>     0.3828     0.5110    22.0479 </r>
       <r>     0.4765    10.2148    23.0046 </r>
       <r>     0.5702    10.1368    23.9539 </r>
       <r>     0.6638     0.4918    24.0000 </r>
       <r>     0.7575     0.0001    24.0000 </r>
       <r>     0.8511     0.0000    24.0000 </r>
       <r>     0.9448     0.0000    24.0000 </r>
       <r>     1.0384     0.0000    24.0000 </r>
       <r>     1.1321     0.0000    24.0000 </r>
       <r>     1.2257     0.0000    24.0000 </r>
       <r>     1.3194     0.0000    24.0000 </r>
       <r>     1.4131     0.0000    24.0000 </r>
       <r>     1.5067     0.0000    24.0000 </r>
       <r>     1.6004     0.0000    24.0000 </r>
       <r>     1.6940     0.0000    24.0000 </r>
       <r>     1.7877     0.0000    24.0000 </r>
      </set>
     </set>
    </array>
   </total>
  </dos>
 </calculation>
 <structure name="finalpos" >
  <crystal>
   <varray name="basis" >
    <v>      30.00000000       0.00000000       0.00000000 </v>
    <v>       0.00000000      10.00000000       0.00000000 </v>
    <v>       0.00000000       0.00000000      10.00000000 </v>
   </varray>
   <i name="volume">   3000.00000000 </i>
   <varray name="rec_basis" >
    <v>       0.03333333       0.00000000       0.00000000 </v>
    <v>       0.00000000       0.10000000       0.00000000 </v>
    <v>       0.00000000       0.00000000       0.10000000 </v>
   </varray>
  </crystal>
  <varray name="positions" >
   <v>       0.09186896       0.15710957       0.17600000 </v>
   <v>       0.95513104       0.15710957       0.17600000 </v>
   <v>       0.10254413       0.25541218       0.17439231 </v>
   <v>       0.05847255       0.16672783       0.17649328 </v>
   <v>       0.94612303       0.09941802       0.25610440 </v>
   <v>       0.94624850       0.09907990       0.09607226 </v>
  </varray>
 </structure>
</modeling>
