-2.152590391593289354e+00 -1.274278985999510283e+00 3.104526638826796484e-02 -1.274278985999510283e+00 -3.739363014959387943e+00 4.029518291167229205e-02 3.104526638826796484e-02 4.029518291167229205e-02 -2.786172224391735064e+00
