1.018739986419677734e+01 1.043480014801025391e+01 4.554039955139160156e+00 6.116940021514892578e+00 1.070709991455078125e+01 1.185459995269775391e+01 8.853420257568359375e+00 3.730979919433593750e+00 7.328229904174804688e+00 3.815560102462768555e+00 9.118459701538085938e+00 1.302659988403320312e+01 8.038840293884277344e+00 1.263360023498535156e+01 1.251729965209960938e+01 4.253099858760833740e-01 3.041900098323822021e-01 1.241329956054687500e+01 8.703200340270996094e+00 7.674199938774108887e-01 8.512809753417968750e+00 1.128409981727600098e+00 1.437959957122802734e+01 1.056359958648681641e+01 1.046599960327148438e+01 1.066219997406005859e+01 5.444469928741455078e+00 1.091289997100830078e+01 1.074530029296875000e+01 4.008170127868652344e+00 5.318099975585937500e+00 1.029069995880126953e+01 1.220989990234375000e+01 6.265910148620605469e+00 1.021240043640136719e+01 1.101790046691894531e+01 8.682239532470703125e+00 2.910209894180297852e+00 7.820839881896972656e+00 9.224929809570312500e+00 4.339859962463378906e+00 8.001070022583007812e+00 3.330300092697143555e+00 8.933400154113769531e+00 1.386110019683837891e+01 3.262759923934936523e+00 8.823760032653808594e+00 1.227009963989257812e+01 8.637470245361328125e+00 1.184899997711181641e+01 1.256350040435791016e+01 7.169809818267822266e+00 1.216160011291503906e+01 1.259399986267089844e+01 1.367200016975402832e+00 5.604299902915954590e-01 1.240060043334960938e+01 4.540000110864639282e-03 9.255899786949157715e-01 1.305389976501464844e+01 9.232830047607421875e+00 1.552017021179199219e+01 8.204389572143554688e+00 8.595479965209960938e+00 6.576700210571289062e-01 9.492790222167968750e+00 2.764799892902374268e-01 1.480930042266845703e+01 1.076760005950927734e+01 1.038529992103576660e+00 1.418929958343505859e+01 9.635519981384277344e+00
2.764080047607421875e+00 3.864279985427856445e+00 7.714779853820800781e+00 1.005420017242431641e+01 4.827079772949218750e+00 8.227529525756835938e+00 5.445859909057617188e+00 1.462220001220703125e+01 2.549380064010620117e+00 4.160069942474365234e+00 7.066420078277587891e+00 1.444050025939941406e+01 8.114179611206054688e+00 6.913410186767578125e+00 1.472150039672851562e+01 1.475160026550292969e+01 8.814700126647949219e+00 1.168169975280761719e+01 1.337670040130615234e+01 8.933679580688476562e+00 9.216939926147460938e+00 4.299059867858886719e+00 4.980000108480453491e-02 1.517020034790039062e+01 3.171580076217651367e+00 4.371429920196533203e+00 8.363800048828125000e+00 3.513629913330078125e+00 3.677429914474487305e+00 7.109419822692871094e+00 1.043910026550292969e+01 4.041069984436035156e+00 7.753590106964111328e+00 9.983469963073730469e+00 4.490419864654541016e+00 9.206020355224609375e+00 6.336480140686035156e+00 1.427429962158203125e+01 2.669080018997192383e+00 5.167890071868896484e+00 1.467370033264160156e+01 1.670959949493408203e+00 3.646519899368286133e+00 7.511859893798828125e+00 1.504059982299804688e+01 4.140779972076416016e+00 7.591229915618896484e+00 1.364039993286132812e+01 8.514780044555664062e+00 6.067150115966796875e+00 1.445189952850341797e+01 7.149700164794921875e+00 7.022640228271484375e+00 1.481229972839355469e+01 1.475889968872070312e+01 7.856440067291259766e+00 1.178929996490478516e+01 1.166000030934810638e-02 9.146209716796875000e+00 1.215439987182617188e+01 1.345440006256103516e+01 7.984839916229248047e+00 9.254249572753906250e+00 1.274559974670410156e+01 8.902460098266601562e+00 8.465669631958007812e+00 4.733749866485595703e+00 1.533730030059814453e+01 1.431700038909912109e+01 3.446650028228759766e+00 1.522659969329833984e+01 1.511600017547607422e+01
1.526229953765869141e+01 9.895179748535156250e+00 4.205000102519989014e-01 9.700699806213378906e+00 7.551360130310058594e+00 1.132810020446777344e+01 7.228779792785644531e+00 4.235909938812255859e+00 1.164430046081542969e+01 1.052219963073730469e+01 1.180979967117309570e+00 1.335439968109130859e+01 4.216330051422119141e+00 1.260649967193603516e+01 7.404139995574951172e+00 1.051239967346191406e+01 1.128709983825683594e+01 1.263919949531555176e+00 2.392950057983398438e+00 5.667910099029541016e+00 4.143949985504150391e+00 4.277359962463378906e+00 7.392549991607666016e+00 1.327140045166015625e+01 5.366000160574913025e-02 1.008170032501220703e+01 1.257539987564086914e+00 2.436999976634979248e-01 9.391389846801757812e+00 1.553841018676757812e+01 1.032610034942626953e+01 6.979829788208007812e+00 1.082680034637451172e+01 8.898750305175781250e+00 7.383709907531738281e+00 1.089939975738525391e+01 6.558129787445068359e+00 4.234109878540039062e+00 1.232629966735839844e+01 7.721479892730712891e+00 3.407870054244995117e+00 1.141189956665039062e+01 1.138230037689208984e+01 7.559999823570251465e-01 1.329489994049072266e+01 1.005949974060058594e+01 5.509700179100036621e-01 1.388020038604736328e+01 4.358019828796386719e+00 1.184720039367675781e+01 7.967510223388671875e+00 3.311520099639892578e+00 1.278530025482177734e+01 7.521840095520019531e+00 1.127210044860839844e+01 1.061530017852783203e+01 1.540959954261779785e+00 1.068589973449707031e+01 1.175759983062744141e+01 4.103400111198425293e-01 2.197109937667846680e+00 4.826749801635742188e+00 4.544849872589111328e+00 1.918869972229003906e+00 5.652390003204345703e+00 3.277740001678466797e+00 4.676420211791992188e+00 7.592720031738281250e+00 1.414350032806396484e+01 3.705130100250244141e+00 6.651659965515136719e+00 1.339529991149902344e+01
3.152019977569580078e+00 4.198050022125244141e+00 8.232660293579101562e+00 1.003890037536621094e+01 4.733019828796386719e+00 8.242050170898437500e+00 5.491940021514892578e+00 1.461810016632080078e+01 2.606420040130615234e+00 4.429850101470947266e+00 7.271810054779052734e+00 1.431499958038330078e+01 7.920730113983154297e+00 6.843810081481933594e+00 1.460760021209716797e+01 1.433590030670166016e+01 8.549070358276367188e+00 1.150599956512451172e+01 1.352810001373291016e+01 8.493860244750976562e+00 8.594449996948242188e+00 4.225160121917724609e+00 1.552900028228759766e+01 1.548289966583251953e+01 3.232219934463500977e+00 4.219160079956054688e+00 9.160200119018554688e+00 4.077040195465087891e+00 4.278160095214843750e+00 7.908299922943115234e+00 1.049020004272460938e+01 3.848249912261962891e+00 8.239199638366699219e+00 9.347900390625000000e+00 4.758679866790771484e+00 8.977069854736328125e+00 6.395380020141601562e+00 1.503250026702880859e+01 2.855930089950561523e+00 4.976540088653564453e+00 1.508259963989257812e+01 1.874930024147033691e+00 3.635610103607177734e+00 7.260449886322021484e+00 1.485260009765625000e+01 4.234660148620605469e+00 7.868340015411376953e+00 1.352260017395019531e+01 8.518919944763183594e+00 6.636169910430908203e+00 1.388840007781982422e+01 7.034719944000244141e+00 6.507410049438476562e+00 1.473540019989013672e+01 1.397690010070800781e+01 8.246649742126464844e+00 1.232339954376220703e+01 1.530840015411376953e+01 8.633460044860839844e+00 1.167430019378662109e+01 1.310029983520507812e+01 9.082150459289550781e+00 9.197340011596679688e+00 1.288290023803710938e+01 8.612819671630859375e+00 7.888700008392333984e+00 4.536449909210205078e+00 8.077600002288818359e-01 1.504080009460449219e+01 3.781399965286254883e+00 1.512909984588623047e+01 1.475839996337890625e+01
1.481529998779296875e+01 7.875099778175354004e-01 2.103490114212036133e+00 1.070660018920898438e+01 5.505869865417480469e+00 7.783870220184326172e+00 4.970930099487304688e+00 1.430039978027343750e+01 6.980900168418884277e-01 4.177639961242675781e+00 6.892809867858886719e+00 1.516409969329833984e+01 7.153230190277099609e+00 6.956459999084472656e+00 5.084599852561950684e-01 3.601259946823120117e+00 9.489669799804687500e+00 1.408450031280517578e+01 1.239850044250488281e+01 1.198880004882812500e+01 1.389519977569580078e+01 4.878250122070312500e+00 1.464369964599609375e+01 1.335050010681152344e+01 1.514420032501220703e+01 8.312100172042846680e-01 2.994329929351806641e+00 1.549310016632080078e+01 1.245839953422546387e+00 1.614969968795776367e+00 1.147900009155273438e+01 4.868730068206787109e+00 7.977759838104248047e+00 1.021539974212646484e+01 5.321670055389404297e+00 8.617309570312500000e+00 4.737110137939453125e+00 1.350749969482421875e+01 1.255139946937561035e+00 4.527740001678466797e+00 1.442319965362548828e+01 1.534599971771240234e+01 3.766220092773437500e+00 6.101250171661376953e+00 1.553794002532958984e+01 5.083640098571777344e+00 6.807040214538574219e+00 9.606000036001205444e-02 7.559740066528320312e+00 6.264160156250000000e+00 1.031890034675598145e+00 7.254169940948486328e+00 7.881780147552490234e+00 7.148100137710571289e-01 3.799499988555908203e+00 8.590229988098144531e+00 1.368710041046142578e+01 4.096650123596191406e+00 9.406370162963867188e+00 1.491870021820068359e+01 1.170110034942626953e+01 1.255959987640380859e+01 1.434889984130859375e+01 1.318970012664794922e+01 1.228569984436035156e+01 1.436209964752197266e+01 5.632770061492919922e+00 1.518200016021728516e+01 1.334270000457763672e+01 5.217599868774414062e+00 1.366959953308105469e+01 1.334379959106445312e+01
1.267210006713867188e+01 1.039490032196044922e+01 1.263420009613037109e+01 1.929630041122436523e+00 6.669600009918212891e-01 5.937280178070068359e+00 1.698809981346130371e+00 8.954660415649414062e+00 2.804300069808959961e+00 1.361800003051757812e+01 1.274160003662109375e+01 1.369279956817626953e+01 1.063609957695007324e+00 1.353899955749511719e+01 3.120079994201660156e+00 1.334949970245361328e+01 2.393769979476928711e+00 4.518839836120605469e+00 1.137740039825439453e+01 5.191180229187011719e+00 2.840569972991943359e+00 3.666150093078613281e+00 1.270359992980957031e+01 9.606500267982482910e-01 1.208570003509521484e+01 9.697210311889648438e+00 1.301630020141601562e+01 1.309179973602294922e+01 1.007600021362304688e+01 1.178880023956298828e+01 2.186029911041259766e+00 2.705900073051452637e-01 6.816629886627197266e+00 2.446079969406127930e+00 1.515890002250671387e+00 5.947850227355957031e+00 2.225960016250610352e+00 8.990389823913574219e+00 3.630130052566528320e+00 9.778500199317932129e-01 9.636799812316894531e+00 2.892460107803344727e+00 1.301679992675781250e+01 1.211240005493164062e+01 1.318729972839355469e+01 1.332120037078857422e+01 1.371220016479492188e+01 1.370860004425048828e+01 3.238100111484527588e-01 1.319690036773681641e+01 3.608170032501220703e+00 1.641020059585571289e+00 1.387349987030029297e+01 3.886879920959472656e+00 1.323229980468750000e+01 2.455120086669921875e+00 5.490940093994140625e+00 1.344480037689208984e+01 1.476709961891174316e+00 4.375959873199462891e+00 1.205900001525878906e+01 4.471129894256591797e+00 2.834140062332153320e+00 1.052869987487792969e+01 4.696440219879150391e+00 2.782259941101074219e+00 3.178129911422729492e+00 1.324699974060058594e+01 2.974300086498260498e-01 3.098109960556030273e+00 1.277350044250488281e+01 1.711830019950866699e+00
1.565600037574768066e+00 2.728569984436035156e+00 5.612629890441894531e+00 1.031859970092773438e+01 4.882609844207763672e+00 8.220620155334472656e+00 5.327700138092041016e+00 1.436610031127929688e+01 1.780910015106201172e+00 4.816299915313720703e+00 6.749519824981689453e+00 1.497239971160888672e+01 7.413469791412353516e+00 6.844130039215087891e+00 1.516860008239746094e+01 1.014340043067932129e+00 9.368140220642089844e+00 1.267039966583251953e+01 1.274520015716552734e+01 1.014249992370605469e+01 1.100430011749267578e+01 4.534969806671142578e+00 1.509850025177001953e+01 1.436330032348632812e+01 1.450039982795715332e+00 3.001679897308349609e+00 4.723790168762207031e+00 6.990200281143188477e-01 2.280649900436401367e+00 5.777880191802978516e+00 9.694540023803710938e+00 5.513309955596923828e+00 7.814939975738525391e+00 1.101700019836425781e+01 4.923639774322509766e+00 7.508940219879150391e+00 4.985280036926269531e+00 1.491740036010742188e+01 2.538409948348999023e+00 4.809710025787353516e+00 1.456070041656494141e+01 9.638500213623046875e-01 4.172490119934082031e+00 6.782750129699707031e+00 1.065199971199035645e-01 4.803540229797363281e+00 5.850940227508544922e+00 1.465960025787353516e+01 7.951369762420654297e+00 7.192190170288085938e+00 3.174099922180175781e-01 6.425079822540283203e+00 6.873509883880615234e+00 1.520049953460693359e+01 7.794399857521057129e-01 8.873220443725585938e+00 1.187119960784912109e+01 1.956789970397949219e+00 9.703599929809570312e+00 1.252610015869140625e+01 1.234840011596679688e+01 9.518899917602539062e+00 1.035890007019042969e+01 1.207250022888183594e+01 1.087160015106201172e+01 1.095460033416748047e+01 4.284140110015869141e+00 5.288400053977966309e-01 1.436130046844482422e+01 5.472080230712890625e+00 1.506379985809326172e+01 1.442450046539306641e+01
7.944650173187255859e+00 5.090149879455566406e+00 1.299390029907226562e+01 7.356790065765380859e+00 4.790099859237670898e-01 5.699749946594238281e+00 6.946179866790771484e+00 9.042639732360839844e+00 7.135350227355957031e+00 1.276999950408935547e+00 1.212709999084472656e+01 1.476509952545166016e+01 1.396090030670166016e+01 1.197179985046386719e+01 1.544180011749267578e+01 8.091930389404296875e+00 8.220210075378417969e+00 4.830890178680419922e+00 1.338930034637451172e+01 4.946179866790771484e+00 3.999459981918334961e+00 1.291300058364868164e-01 1.468029975891113281e+01 1.336439990997314453e+01 8.025360107421875000e+00 4.249259948730468750e+00 1.256050014495849609e+01 8.469440460205078125e+00 5.058829784393310547e+00 1.376239967346191406e+01 7.369379997253417969e+00 3.103500008583068848e-01 4.748509883880615234e+00 8.122440338134765625e+00 1.046399950981140137e+00 5.811240196228027344e+00 7.847799777984619141e+00 9.383669853210449219e+00 7.032839775085449219e+00 7.131279945373535156e+00 8.432809829711914062e+00 7.868480205535888672e+00 1.818619966506958008e+00 1.140149974822998047e+01 1.517020034790039062e+01 1.882680058479309082e+00 1.275580024719238281e+01 1.435429954528808594e+01 1.450370025634765625e+01 1.239700031280517578e+01 1.473040008544921875e+01 1.298239994049072266e+01 1.216709995269775391e+01 1.516119956970214844e+01 7.686560153961181641e+00 8.294159889221191406e+00 5.728919982910156250e+00 7.313539981842041016e+00 8.025520324707031250e+00 4.238110065460205078e+00 1.366230010986328125e+01 4.844039916992187500e+00 3.095319986343383789e+00 1.245730018615722656e+01 4.843609809875488281e+00 3.833889961242675781e+00 4.897699952125549316e-01 1.413599967956542969e+01 1.261050033569335938e+01 1.490209960937500000e+01 1.508240032196044922e+01 1.296700000762939453e+01
1.812690019607543945e+00 2.969830036163330078e+00 6.093729972839355469e+00 1.023659992218017578e+01 4.882420063018798828e+00 8.264470100402832031e+00 5.384789943695068359e+00 1.447500038146972656e+01 1.856410026550292969e+00 4.549250125885009766e+00 6.783929824829101562e+00 1.485960006713867188e+01 7.745409965515136719e+00 6.917699813842773438e+00 1.508320045471191406e+01 8.279399871826171875e-01 9.268770217895507812e+00 1.253549957275390625e+01 1.274680042266845703e+01 9.759810447692871094e+00 1.057680034637451172e+01 4.565760135650634766e+00 1.513889980316162109e+01 1.458590030670166016e+01 1.908679962158203125e+00 3.471839904785156250e+00 5.314740180969238281e+00 1.144739985466003418e+00 2.324729919433593750e+00 5.815199851989746094e+00 9.740949630737304688e+00 5.281680107116699219e+00 7.477180004119873047e+00 1.113090038299560547e+01 4.642250061035156250e+00 7.848609924316406250e+00 4.765550136566162109e+00 1.468819999694824219e+01 2.614660024642944336e+00 4.926599979400634766e+00 1.428489971160888672e+01 9.607800245285034180e-01 4.089660167694091797e+00 6.888269901275634766e+00 9.717000275850296021e-02 4.058650016784667969e+00 6.150660037994384766e+00 1.438920021057128906e+01 8.015769958496093750e+00 6.849140167236328125e+00 4.266900122165679932e-01 6.847859859466552734e+00 6.735949993133544922e+00 1.478600025177001953e+01 2.315999940037727356e-02 9.732020378112792969e+00 1.228989982604980469e+01 1.072649955749511719e+00 8.696330070495605469e+00 1.174839973449707031e+01 1.193220043182373047e+01 1.005819988250732422e+01 1.016419982910156250e+01 1.319680023193359375e+01 1.060519981384277344e+01 1.047410011291503906e+01 3.746819972991943359e+00 1.587599962949752808e-01 1.445310020446777344e+01 5.256239891052246094e+00 1.877599954605102539e-01 1.475030040740966797e+01
1.453759956359863281e+01 8.701880455017089844e+00 1.663249969482421875e+00 1.101840019226074219e+01 7.394189834594726562e+00 1.050020027160644531e+01 9.016420364379882812e+00 5.885920047760009766e+00 1.187300014495849609e+01 8.840439796447753906e+00 2.633799910545349121e-01 1.258189964294433594e+01 3.710629940032958984e+00 1.033469963073730469e+01 9.782870292663574219e+00 1.039599990844726562e+01 1.233699989318847656e+01 9.995899796485900879e-01 2.463409900665283203e+00 5.098390102386474609e+00 2.819210052490234375e+00 4.213890075683593750e+00 9.518980026245117188e+00 1.292500019073486328e+01 1.448820018768310547e+01 7.766019821166992188e+00 2.099189996719360352e+00 1.528969955444335938e+01 9.068099975585937500e+00 2.131249904632568359e+00 1.030519962310791016e+01 6.905529975891113281e+00 1.095259952545166016e+01 1.175940036773681641e+01 6.894209861755371094e+00 1.005389976501464844e+01 8.420760154724121094e+00 5.326529979705810547e+00 1.138860034942626953e+01 9.261199951171875000e+00 5.408070087432861328e+00 1.268649959564208984e+01 9.107930183410644531e+00 1.530379962921142578e+01 1.332279968261718750e+01 9.558739662170410156e+00 3.048399984836578369e-01 1.192280006408691406e+01 3.897979974746704102e+00 1.035610008239746094e+01 8.779709815979003906e+00 2.997100114822387695e+00 1.095380020141601562e+01 9.908399581909179688e+00 9.646780014038085938e+00 1.285109996795654297e+01 1.262989997863769531e+00 1.074009990692138672e+01 1.286400032043457031e+01 2.896099984645843506e-01 2.787309885025024414e+00 5.525080204010009766e+00 2.032609939575195312e+00 1.797019958496093750e+00 4.496699810028076172e+00 2.486989974975585938e+00 3.578320026397705078e+00 9.788519859313964844e+00 1.219939994812011719e+01 4.356440067291259766e+00 8.613490104675292969e+00 1.255939960479736328e+01
2.058340072631835938e+00 3.211859941482543945e+00 6.586589813232421875e+00 1.016499996185302734e+01 4.890580177307128906e+00 8.273189544677734375e+00 5.373350143432617188e+00 1.458880043029785156e+01 1.872449994087219238e+00 4.309070110321044922e+00 6.804550170898437500e+00 1.477980041503906250e+01 8.016770362854003906e+00 6.921319961547851562e+00 1.498190021514892578e+01 4.664100110530853271e-01 9.108189582824707031e+00 1.219750022888183594e+01 1.285050010681152344e+01 9.473649978637695312e+00 1.014270019531250000e+01 4.613739967346191406e+00 1.524489974975585938e+01 1.494789981842041016e+01 2.395849943161010742e+00 3.918200016021728516e+00 6.039120197296142578e+00 1.796939969062805176e+00 2.541189908981323242e+00 5.929940223693847656e+00 9.902000427246093750e+00 4.933219909667968750e+00 7.304190158843994141e+00 1.102299976348876953e+01 4.417779922485351562e+00 8.342329978942871094e+00 4.841949939727783203e+00 1.402120018005371094e+01 2.445590019226074219e+00 5.075809955596923828e+00 1.466539955139160156e+01 1.017860054969787598e+00 3.730289936065673828e+00 7.226570129394531250e+00 1.544680023193359375e+01 3.736380100250244141e+00 6.614759922027587891e+00 1.401860046386718750e+01 8.053079605102539062e+00 6.502570152282714844e+00 2.605899870395660400e-01 7.226369857788085938e+00 7.123839855194091797e+00 1.450850009918212891e+01 5.743100047111511230e-01 9.516530036926269531e+00 1.304049968719482422e+01 1.513519954681396484e+01 8.728050231933593750e+00 1.218929958343505859e+01 1.238459968566894531e+01 1.027579975128173828e+01 1.037069988250732422e+01 1.337559986114501953e+01 9.891059875488281250e+00 9.466810226440429688e+00 3.724200010299682617e+00 1.497060012817382812e+01 1.455910015106201172e+01 4.580619812011718750e+00 5.997700095176696777e-01 1.482859992980957031e+01
3.517390012741088867e+00 4.514840126037597656e+00 8.745699882507324219e+00 1.001270008087158203e+01 4.633309841156005859e+00 8.271960258483886719e+00 5.533820152282714844e+00 1.468819999694824219e+01 2.610529899597167969e+00 4.805980205535888672e+00 7.404550075531005859e+00 1.422080039978027344e+01 7.630539894104003906e+00 6.734039783477783203e+00 1.445520019531250000e+01 1.384459972381591797e+01 8.255990028381347656e+00 1.154290008544921875e+01 1.355959987640380859e+01 8.208100318908691406e+00 8.070500373840332031e+00 4.215879917144775391e+00 1.555280017852783203e+01 2.646799981594085693e-01 3.344379901885986328e+00 4.047470092773437500e+00 9.574850082397460938e+00 4.449180126190185547e+00 4.861670017242431641e+00 8.804599761962890625e+00 1.033790016174316406e+01 3.893690109252929688e+00 8.778369903564453125e+00 9.101559638977050781e+00 4.825379848480224609e+00 8.462030410766601562e+00 5.815400123596191406e+00 5.146000161767005920e-02 2.929729938507080078e+00 5.169250011444091797e+00 1.476760005950927734e+01 1.689159989356994629e+00 3.994290113449096680e+00 6.916110038757324219e+00 1.453139972686767578e+01 4.479730129241943359e+00 8.152520179748535156e+00 1.357689952850341797e+01 8.265500068664550781e+00 6.984680175781250000e+00 1.378639984130859375e+01 6.758900165557861328e+00 7.095530033111572266e+00 1.455189990997314453e+01 1.400220012664794922e+01 9.022139549255371094e+00 1.205319976806640625e+01 1.463729953765869141e+01 8.209059715270996094e+00 1.096710014343261719e+01 1.417910003662109375e+01 8.875659942626953125e+00 7.734179973602294922e+00 1.277200031280517578e+01 8.504070281982421875e+00 7.567840099334716797e+00 3.670130014419555664e+00 8.200299739837646484e-01 2.397000044584274292e-02 4.569109916687011719e+00 1.536520004272460938e+01 1.497480010986328125e+01
1.314140033721923828e+01 6.560639858245849609e+00 2.454050064086914062e+00 1.308780002593994141e+01 6.862549781799316406e+00 9.796480178833007812e+00 1.090019989013671875e+01 7.580359935760498047e+00 1.134539985656738281e+01 7.664850234985351562e+00 4.429300129413604736e-01 1.203429985046386719e+01 1.381999969482421875e+00 8.693160057067871094e+00 1.135630035400390625e+01 9.829899787902832031e+00 1.381359958648681641e+01 4.322099983692169189e-01 2.238219976425170898e+00 4.478300094604492188e+00 1.735859990119934082e+00 5.726469993591308594e+00 1.057979965209960938e+01 1.343589973449707031e+01 1.367389965057373047e+01 7.411580085754394531e+00 2.255039930343627930e+00 1.257820034027099609e+01 6.864369869232177734e+00 3.138180017471313477e+00 1.226119995117187500e+01 6.996379852294921875e+00 1.026220035552978516e+01 1.308180046081542969e+01 6.525569915771484375e+00 8.840390205383300781e+00 1.112679958343505859e+01 7.488629817962646484e+00 1.228390026092529297e+01 1.032400035858154297e+01 8.387410163879394531e+00 1.135439968109130859e+01 8.601699829101562500e+00 6.626999974250793457e-01 1.202140045166015625e+01 7.273320198059082031e+00 1.319069981575012207e+00 1.192969989776611328e+01 1.193349957466125488e+00 7.806580066680908203e+00 1.181110000610351562e+01 1.754340052604675293e+00 9.128279685974121094e+00 1.211260032653808594e+01 1.024909973144531250e+01 1.470390033721923828e+01 6.376799941062927246e-01 1.055790042877197266e+01 1.315320014953613281e+01 3.316499888896942139e-01 3.055880069732666016e+00 4.847690105438232422e+00 2.127160072326660156e+00 1.985990047454833984e+00 3.724760055541992188e+00 2.322449922561645508e+00 6.025129795074462891e+00 1.080140018463134766e+01 1.431919956207275391e+01 6.056620121002197266e+00 1.114169979095458984e+01 1.276669979095458984e+01
1.239869976043701172e+01 5.718400001525878906e+00 1.078709959983825684e+00 2.889919996261596680e+00 1.268449974060058594e+01 1.406809997558593750e+01 1.422299957275390625e+01 1.493620014190673828e+01 5.249979972839355469e+00 1.346829986572265625e+01 2.685729980468750000e+00 6.847159862518310547e+00 9.385709762573242188e+00 1.033040046691894531e+00 5.601329803466796875e+00 1.029469966888427734e+01 1.456420040130615234e+01 8.154549598693847656e+00 6.761169910430908203e+00 2.891030073165893555e+00 1.882590055465698242e+00 6.236380100250244141e+00 1.314470005035400391e+01 1.276869964599609375e+01 1.252289962768554688e+01 6.221079826354980469e+00 1.916479945182800293e+00 1.298139953613281250e+01 4.941669940948486328e+00 1.187039971351623535e+00 2.034859895706176758e+00 1.281620025634765625e+01 1.356890010833740234e+01 2.933059930801391602e+00 1.171969985961914062e+01 1.410050010681152344e+01 1.338059997558593750e+01 1.496220016479492188e+01 5.781350135803222656e+00 1.388899993896484375e+01 1.435050010681152344e+01 4.471039772033691406e+00 1.308549976348876953e+01 2.340709924697875977e+00 6.010210037231445312e+00 1.440839958190917969e+01 2.555059909820556641e+00 6.607960224151611328e+00 9.774820327758789062e+00 1.587779998779296875e+00 4.898849964141845703e+00 8.829099655151367188e+00 5.202999711036682129e-01 4.942679882049560547e+00 1.006750011444091797e+01 1.514519977569580078e+01 7.412439823150634766e+00 9.886679649353027344e+00 1.508040046691894531e+01 8.916299819946289062e+00 7.180950164794921875e+00 3.477190017700195312e+00 2.526249885559082031e+00 5.878970146179199219e+00 2.778529882431030273e+00 2.280129909515380859e+00 6.226290225982666016e+00 1.305080032348632812e+01 1.373680019378662109e+01 7.198349952697753906e+00 1.308209991455078125e+01 1.231649971008300781e+01
