-4.109489917755126953e-01 -2.187010049819946289e-01 -9.439700096845626831e-02 1.022310033440589905e-01 -4.258840084075927734e-01 -7.723069787025451660e-01 1.785950064659118652e-01 4.580839872360229492e-01 3.926439881324768066e-01 -2.337870001792907715e-01 -1.294119954109191895e-01 -1.086110025644302368e-01 6.808000151067972183e-03 -1.076073050498962402e+00 2.746619880199432373e-01 -3.839010000228881836e-01 1.011973977088928223e+00 1.032508015632629395e+00 2.432810068130493164e-01 -4.670299887657165527e-01 6.234080195426940918e-01 -2.043070048093795776e-01 -5.178400129079818726e-02 1.474460065364837646e-01 6.161199882626533508e-02 7.154399901628494263e-02 4.713110029697418213e-01 3.428620100021362305e-01 1.399919986724853516e-01 -3.783209919929504395e-01 -3.505260050296783447e-01 -1.692579984664916992e-01 4.213010072708129883e-01 5.941199883818626404e-02 4.746240079402923584e-01 5.234770178794860840e-01 6.540200114250183105e-02 -2.245939970016479492e-01 -1.769099943339824677e-02 -2.103260010480880737e-01 -3.572109937667846680e-01 -3.886260092258453369e-01 1.659390032291412354e-01 7.838500291109085083e-02 -7.650399804115295410e-01 1.029530018568038940e-01 1.007660031318664551e-01 7.694219946861267090e-01 -2.803080081939697266e-01 7.786840200424194336e-01 -4.228499904274940491e-02 4.520879983901977539e-01 4.059610068798065186e-01 -3.238390088081359863e-01 -2.832959890365600586e-01 -1.815840005874633789e-01 -9.135399758815765381e-02 3.600339889526367188e-01 -4.766640067100524902e-01 -4.796159863471984863e-01 -4.871450066566467285e-01 6.905019879341125488e-01 4.454639852046966553e-01 1.899449974298477173e-01 -1.155719980597496033e-01 -1.034697055816650391e+00 3.184010088443756104e-01 2.128200046718120575e-02 3.919790089130401611e-01 1.949809938669204712e-01 -3.380309939384460449e-01 -9.968360066413879395e-01
-5.696740150451660156e-01 -1.665951967239379883e+00 -2.432665109634399414e+00 2.472379952669143677e-01 -1.647591948509216309e+00 1.926645040512084961e+00 1.862249970436096191e-01 6.051199883222579956e-02 3.289482116699218750e+00 2.248512983322143555e+00 -2.151781082153320312e+00 -2.070102930068969727e+00 8.167139887809753418e-01 1.018144965171813965e+00 2.190639972686767578e-01 1.414306998252868652e+00 9.620680212974548340e-01 8.398550152778625488e-01 -8.982210159301757812e-01 2.487989962100982666e-01 -1.113093972206115723e+00 2.051321029663085938e+00 1.415800005197525024e-01 -9.654539823532104492e-01 1.121981978416442871e+00 1.705703020095825195e+00 2.271370887756347656e+00 -5.521860122680664062e-01 -4.038099944591522217e-02 1.563789993524551392e-01 -4.191550016403198242e-01 8.368980288505554199e-01 5.398550033569335938e-01 1.892780065536499023e-01 8.168789744377136230e-01 -2.467267036437988281e+00 1.285000005736947060e-03 -4.855100065469741821e-02 -6.249939799308776855e-01 -2.043039947748184204e-01 6.394799798727035522e-02 -2.750312089920043945e+00 -2.153990983963012695e+00 1.860030055046081543e+00 2.551141977310180664e+00 -1.190899964421987534e-02 3.066380023956298828e-01 -4.770660102367401123e-01 -1.304105043411254883e+00 1.427240073680877686e-01 1.364009976387023926e-01 3.944819867610931396e-01 -1.172783017158508301e+00 -3.505809903144836426e-01 1.540340036153793335e-01 -2.360879927873611450e-01 1.672759950160980225e-01 -1.451321959495544434e+00 -7.617809772491455078e-01 -8.010579943656921387e-01 7.072749733924865723e-01 -1.098549962043762207e+00 7.689499855041503906e-01 6.522099673748016357e-02 8.803420066833496094e-01 1.314480006694793701e-01 -4.813539981842041016e-01 4.061279892921447754e-01 1.092098951339721680e+00 -1.551653981208801270e+00 -6.269339919090270996e-01 -3.736900165677070618e-02
-5.148050189018249512e-01 1.316130012273788452e-01 -1.339810043573379517e-01 2.733057022094726562e+00 -2.349600009620189667e-02 5.951189994812011719e-01 1.234153032302856445e+00 3.989750146865844727e-01 -1.472746014595031738e+00 4.872019886970520020e-01 7.987560033798217773e-01 -6.547700166702270508e-01 1.896334052085876465e+00 -3.841999918222427368e-03 -5.277820229530334473e-01 1.477354049682617188e+00 -1.308724999427795410e+00 6.149479746818542480e-01 -1.806789934635162354e-01 8.551089763641357422e-01 -1.131808042526245117e+00 1.020823955535888672e+00 1.243950009346008301e+00 1.128629967570304871e-01 2.513889968395233154e-01 -1.302000042051076889e-02 1.825580000877380371e-01 2.538900077342987061e-01 -1.063940003514289856e-01 -4.076600074768066406e-02 -3.123550117015838623e-01 4.311000108718872070e-01 4.765149950981140137e-01 -2.433928966522216797e+00 -4.240910112857818604e-01 -1.052219033241271973e+00 -5.450000171549618244e-04 -1.014256954193115234e+00 3.649530112743377686e-01 -1.206529974937438965e+00 6.393179893493652344e-01 1.088356971740722656e+00 5.876209735870361328e-01 5.167299881577491760e-02 -2.400020062923431396e-01 -1.090831041336059570e+00 -8.507609963417053223e-01 8.864169716835021973e-01 2.983430027961730957e-01 -5.754470229148864746e-01 3.656460046768188477e-01 -2.195717096328735352e+00 5.809389948844909668e-01 1.682679951190948486e-01 -1.966824054718017578e+00 2.254821062088012695e+00 -1.505782961845397949e+00 5.031219720840454102e-01 -9.541869759559631348e-01 8.780699968338012695e-01 -2.110089957714080811e-01 -8.071219921112060547e-01 3.388339877128601074e-01 3.898380100727081299e-01 -5.115300044417381287e-02 7.918260097503662109e-01 -2.834619879722595215e-01 -2.434059977531433105e-01 -4.424029886722564697e-01 -7.364429831504821777e-01 -1.010352969169616699e+00 3.378869891166687012e-01
5.209370255470275879e-01 2.981999889016151428e-03 -2.329664945602416992e+00 -6.071789860725402832e-01 -4.355799853801727295e-01 8.490329980850219727e-01 8.689339756965637207e-01 6.838920116424560547e-01 1.145280003547668457e-01 3.592790067195892334e-01 8.317019939422607422e-01 -1.662281990051269531e+00 1.022349953651428223e+00 1.480417013168334961e+00 1.535303950309753418e+00 1.475587964057922363e+00 6.104689836502075195e-01 -1.013898015022277832e+00 4.442600160837173462e-02 -3.662520051002502441e-01 -8.581860065460205078e-01 1.268126010894775391e+00 2.307769060134887695e+00 2.586129903793334961e-01 1.391610056161880493e-01 5.427800118923187256e-02 2.143342018127441406e+00 -6.568089723587036133e-01 -5.630199983716011047e-02 1.762430071830749512e-01 -7.823960185050964355e-01 9.259819984436035156e-01 3.644759953022003174e-01 1.381925940513610840e+00 -4.847010076045989990e-01 -1.217339992523193359e+00 -2.365552902221679688e+00 -4.412170052528381348e-01 -1.189414978027343750e+00 1.487624049186706543e+00 -2.763949930667877197e-01 9.778220057487487793e-01 -4.910509884357452393e-01 1.405059993267059326e-01 1.557749956846237183e-01 2.079419940710067749e-01 -1.033736944198608398e+00 1.535897016525268555e+00 -8.990039825439453125e-01 -7.736219763755798340e-01 -4.786629974842071533e-01 -1.930229961872100830e-01 -6.476050019264221191e-01 -1.086930036544799805e+00 -5.229240059852600098e-01 -4.680039882659912109e-01 1.280606985092163086e+00 -1.000319004058837891e+00 -9.650599956512451172e-02 -2.011169940233230591e-01 -3.751299902796745300e-02 7.776989936828613281e-01 1.718302965164184570e+00 3.001799993216991425e-02 -4.651679992675781250e-01 -9.137930274009704590e-01 -3.047519922256469727e-01 -1.141541957855224609e+00 9.657570123672485352e-01 -9.457880258560180664e-01 -1.129065990447998047e+00 -1.124413013458251953e+00
-7.413240075111389160e-01 -3.353500068187713623e-01 -3.978439867496490479e-01 1.326979041099548340e+00 -1.745607018470764160e+00 1.348374009132385254e+00 -2.895979881286621094e-01 9.308200329542160034e-02 -5.579519867897033691e-01 2.347517013549804688e+00 -4.934700131416320801e-01 1.538478016853332520e+00 -1.425271987915039062e+00 -7.907869815826416016e-01 -1.645449042320251465e+00 5.836629867553710938e-01 -1.074949026107788086e+00 -5.188019871711730957e-01 -1.366760015487670898e+00 1.056879997253417969e+00 8.322880268096923828e-01 -1.557047009468078613e+00 -3.708631992340087891e+00 1.284230053424835205e-01 1.938890069723129272e-01 -6.368199735879898071e-02 1.035894036293029785e+00 5.462470054626464844e-01 3.934639990329742432e-01 -6.420500278472900391e-01 -1.174396991729736328e+00 1.295603036880493164e+00 -8.112769722938537598e-01 -1.564020067453384399e-01 4.516060054302215576e-01 -5.404610037803649902e-01 -2.835879921913146973e-01 9.623879790306091309e-01 -1.529760003089904785e+00 6.288400292396545410e-01 -1.020290970802307129e+00 2.001465082168579102e+00 -5.796570181846618652e-01 -1.354629993438720703e-01 -1.714960038661956787e-01 -1.478517055511474609e+00 5.075590014457702637e-01 -1.360044002532958984e+00 5.137929916381835938e-01 6.413689851760864258e-01 7.302790284156799316e-01 7.431730031967163086e-01 1.530620008707046509e-01 9.374049901962280273e-01 -4.291970133781433105e-01 1.148977041244506836e+00 5.463029742240905762e-01 -2.520529925823211670e-01 5.732100084424018860e-02 -5.192799866199493408e-02 9.472399950027465820e-01 -9.930189847946166992e-01 -8.467270135879516602e-01 4.266639947891235352e-01 -5.811600014567375183e-02 2.357099950313568115e-02 2.122335910797119141e+00 1.264693975448608398e+00 3.337000031024217606e-03 -6.465290188789367676e-01 2.393362045288085938e+00 -5.202699825167655945e-02
-2.206199988722801208e-02 -5.803009867668151855e-01 -6.205199956893920898e-01 9.316909909248352051e-01 3.518469929695129395e-01 1.197224020957946777e+00 -5.567510128021240234e-01 6.138049960136413574e-01 3.420700132846832275e-01 -4.531199932098388672e-01 1.133074045181274414e+00 -1.022239997982978821e-01 2.004456996917724609e+00 9.228699803352355957e-01 1.189123034477233887e+00 -3.566170036792755127e-01 1.954694986343383789e+00 9.427539706230163574e-01 3.981899842619895935e-02 -1.008383035659790039e+00 -8.829899877309799194e-02 3.490729928016662598e-01 5.049300193786621094e-01 -1.635951042175292969e+00 6.876969933509826660e-01 4.740169942378997803e-01 -6.721739768981933594e-01 -7.510610222816467285e-01 5.748999863862991333e-02 1.197936058044433594e+00 -3.673650026321411133e-01 3.965120017528533936e-01 -1.048313975334167480e+00 -5.785859823226928711e-01 -8.238970041275024414e-01 -1.665340065956115723e-01 -4.468640089035034180e-01 1.712879985570907593e-01 -4.133870005607604980e-01 1.019451022148132324e+00 -7.937980294227600098e-01 6.480599939823150635e-02 4.586000144481658936e-01 1.183068990707397461e+00 6.196039915084838867e-01 7.688000053167343140e-02 -2.257946014404296875e+00 -4.175339937210083008e-01 -1.025424957275390625e+00 -4.888330101966857910e-01 3.192839920520782471e-01 -8.875640034675598145e-01 -3.729729950428009033e-01 -1.502233028411865234e+00 6.292399764060974121e-02 1.134390011429786682e-01 -5.511509776115417480e-01 2.719849944114685059e-01 -2.021344900131225586e+00 -4.599950015544891357e-01 -5.984780192375183105e-01 6.339269876480102539e-01 1.022159978747367859e-01 5.844650268554687500e-01 3.343780040740966797e-01 4.559300094842910767e-02 4.702079892158508301e-01 -4.720090031623840332e-01 3.941900134086608887e-01 -9.133539795875549316e-01 -2.585900016129016876e-02 1.263517022132873535e+00
-8.516359925270080566e-01 -9.850490093231201172e-01 1.649600982666015625e+00 7.477620244026184082e-01 4.910120069980621338e-01 -1.428702950477600098e+00 -2.978290021419525146e-01 4.934540092945098877e-01 5.269380211830139160e-01 8.548899739980697632e-02 7.153450250625610352e-01 -3.727259933948516846e-01 6.867529749870300293e-01 -6.478019952774047852e-01 -1.107591032981872559e+00 1.555994987487792969e+00 6.117730140686035156e-01 3.517499938607215881e-02 -1.185065031051635742e+00 4.539859890937805176e-01 -6.241760253906250000e-01 -2.446789979934692383e+00 2.222996950149536133e+00 1.015300005674362183e-01 4.117599874734878540e-02 6.808639764785766602e-01 -1.798897981643676758e+00 8.114619851112365723e-01 3.017379939556121826e-01 1.463679969310760498e-01 -2.646949887275695801e-01 -1.231390014290809631e-01 4.199669957160949707e-01 -4.859470129013061523e-01 -3.630389869213104248e-01 1.006379961967468262e+00 1.942709982395172119e-01 -6.202369928359985352e-01 -1.318483948707580566e+00 3.617100045084953308e-02 1.449349969625473022e-01 6.890550255775451660e-01 -4.997569918632507324e-01 8.542499691247940063e-02 5.960770249366760254e-01 -1.042860001325607300e-01 -9.273759722709655762e-01 -3.769609928131103516e-01 -7.995830178260803223e-01 1.818580031394958496e-01 3.127979934215545654e-01 6.218029856681823730e-01 6.124380230903625488e-01 9.339560270309448242e-01 1.375340074300765991e-01 8.296000212430953979e-02 -8.719400316476821899e-02 -1.688338994979858398e+00 -6.868969798088073730e-01 7.664299756288528442e-02 3.818469941616058350e-01 4.696699976921081543e-02 3.358410000801086426e-01 8.037160038948059082e-01 -5.235859751701354980e-01 2.774359881877899170e-01 8.015450239181518555e-01 -2.405196905136108398e+00 -1.759300008416175842e-02 1.718404054641723633e+00 1.565719991922378540e-01 2.455800026655197144e-02
-1.366315007209777832e+00 1.087401032447814941e+00 -1.358026027679443359e+00 -2.543030083179473877e-01 -1.860560029745101929e-01 -5.106600001454353333e-02 5.052790045738220215e-01 -2.703630030155181885e-01 5.283589959144592285e-01 1.402640044689178467e-01 -8.843560218811035156e-01 3.875679969787597656e-01 -2.198292016983032227e+00 7.660809755325317383e-01 -1.233826041221618652e+00 -8.054440021514892578e-01 -3.966119885444641113e-01 -7.069370150566101074e-01 1.845010071992874146e-01 4.532700031995773315e-02 4.775669872760772705e-01 2.747200056910514832e-02 -5.169249773025512695e-01 -1.189599037170410156e+00 1.645269989967346191e-01 -8.801670074462890625e-01 -3.187679946422576904e-01 1.196660041809082031e+00 -2.041459977626800537e-01 1.664229989051818848e+00 -1.591710001230239868e-01 -1.568270027637481689e-01 -1.967400014400482178e-01 4.199999868869781494e-01 3.446559906005859375e-01 2.513889968395233154e-01 9.875299781560897827e-02 7.788649797439575195e-01 -1.899960041046142578e-01 -5.594499707221984863e-01 -2.394170016050338745e-01 2.365210056304931641e-01 -4.383800029754638672e-01 9.162619709968566895e-01 -5.295270085334777832e-01 3.057720065116882324e-01 1.315000001341104507e-03 1.178459972143173218e-01 -2.791270017623901367e-01 -3.208090066909790039e-01 6.644480228424072266e-01 2.503823995590209961e+00 -4.615960121154785156e-01 6.536809802055358887e-01 -2.414560019969940186e-01 -1.684509962797164917e-01 -6.604650020599365234e-01 9.955480098724365234e-01 2.830570042133331299e-01 7.999060153961181641e-01 1.088561058044433594e+00 -3.606899827718734741e-02 -1.004019975662231445e+00 -1.269773006439208984e+00 -3.144999966025352478e-03 5.320529937744140625e-01 -4.247480034828186035e-01 6.208729743957519531e-01 8.860160112380981445e-01 3.652989864349365234e-01 -1.188969984650611877e-01 2.393860071897506714e-01
-4.187900125980377197e-01 -1.201205015182495117e+00 1.426484942436218262e+00 7.837749719619750977e-01 2.466039955615997314e-01 -2.171551942825317383e+00 -6.962730288505554199e-01 -9.967000037431716919e-02 -4.273140132427215576e-01 2.096751928329467773e+00 1.159580945968627930e+00 -4.660840034484863281e-01 1.375324964523315430e+00 5.055400133132934570e-01 -1.570562958717346191e+00 9.265019893646240234e-01 -1.042932033538818359e+00 -8.394730091094970703e-01 1.061260029673576355e-01 3.122209906578063965e-01 -8.163800090551376343e-02 -2.775379896163940430e+00 9.533800184726715088e-02 -4.899379909038543701e-01 4.550650119781494141e-01 1.387148976325988770e+00 -1.697991013526916504e+00 -4.405400156974792480e-02 -1.855800002813339233e-01 2.702200114727020264e-01 8.287299871444702148e-01 -6.850140094757080078e-01 1.378913044929504395e+00 -1.613363027572631836e+00 4.353100061416625977e-01 7.898629903793334961e-01 4.410200119018554688e-01 -4.704059958457946777e-01 -1.737946033477783203e+00 2.268629968166351318e-01 6.469699740409851074e-01 2.098439931869506836e+00 -8.410339951515197754e-01 3.320389986038208008e-01 1.655387997627258301e+00 -1.156916022300720215e+00 -1.513210058212280273e+00 -1.248777985572814941e+00 -9.814090132713317871e-01 -3.164249956607818604e-01 4.793699979782104492e-01 -4.979940056800842285e-01 -1.541599929332733154e-01 1.142954945564270020e+00 -4.040749967098236084e-01 4.918099939823150635e-02 -2.772470116615295410e-01 -5.544139742851257324e-01 9.598730206489562988e-01 1.126674056053161621e+00 -9.838820099830627441e-01 -5.411819815635681152e-01 -1.798380017280578613e-01 9.113739728927612305e-01 2.551339864730834961e-01 2.635920047760009766e-01 1.592041969299316406e+00 -1.212834000587463379e+00 2.650470137596130371e-01 1.224009037017822266e+00 1.037678003311157227e+00 2.914119958877563477e-01
-4.766289889812469482e-01 -2.633846044540405273e+00 9.009550213813781738e-01 1.203791975975036621e+00 7.679839730262756348e-01 -7.862309813499450684e-01 6.973080039024353027e-01 6.031489968299865723e-01 7.136160135269165039e-01 7.764600217342376709e-02 -3.441919982433319092e-01 6.151000261306762695e-01 1.014209985733032227e+00 -6.050180196762084961e-01 -2.041487932205200195e+00 4.568000137805938721e-01 -9.024189710617065430e-01 3.232409954071044922e-01 3.782200068235397339e-02 -2.715199999511241913e-02 8.525500297546386719e-01 -1.072481989860534668e+00 -6.909980177879333496e-01 -1.628254055976867676e+00 -3.627699986100196838e-02 2.181252002716064453e+00 -1.128713011741638184e+00 5.268369913101196289e-01 4.422709941864013672e-01 2.327370047569274902e-01 5.368289947509765625e-01 -8.709099888801574707e-01 -2.670089900493621826e-01 -1.699610948562622070e+00 7.806099951267242432e-02 1.047016978263854980e+00 -6.000409722328186035e-01 -6.677049994468688965e-01 -4.054769873619079590e-01 -1.417170017957687378e-01 7.360800355672836304e-02 -3.019140064716339111e-01 2.754000015556812286e-03 6.705369949340820312e-01 -1.138478040695190430e+00 -8.291800320148468018e-02 -3.132340013980865479e-01 5.032659769058227539e-01 -4.372690021991729736e-01 -1.497100014239549637e-02 2.110522031784057617e+00 -6.561669707298278809e-01 6.390460133552551270e-01 -4.887399822473526001e-02 -1.133180022239685059e+00 4.934610128402709961e-01 6.044170260429382324e-01 6.785500049591064453e-01 4.036079943180084229e-01 -9.166269898414611816e-01 4.017089903354644775e-01 4.877119958400726318e-01 -7.312880158424377441e-01 -4.469229876995086670e-01 -4.417169988155364990e-01 -1.267070025205612183e-01 7.705990076065063477e-01 2.859820127487182617e-01 9.610450267791748047e-01 3.783569931983947754e-01 3.854910135269165039e-01 6.565979719161987305e-01
-3.411369919776916504e-01 -7.132580280303955078e-01 9.766600281000137329e-02 -1.652700006961822510e-01 -3.856299817562103271e-02 -1.091104030609130859e+00 2.045664072036743164e+00 -8.059100061655044556e-02 4.395899772644042969e+00 -1.203370019793510437e-01 1.356379985809326172e-01 2.670289874076843262e-01 2.676698923110961914e+00 6.388580203056335449e-01 -1.027219057083129883e+00 -3.673489987850189209e-01 -8.044130206108093262e-01 -1.326828002929687500e+00 -6.740099936723709106e-02 -1.746049970388412476e-01 1.955060064792633057e-01 -1.775709033012390137e+00 -2.318664073944091797e+00 -8.423399925231933594e-01 3.145299851894378662e-01 6.500430107116699219e-01 -3.279899954795837402e-01 2.804099954664707184e-02 5.505999922752380371e-02 2.346200048923492432e-01 7.456480264663696289e-01 -2.548060119152069092e-01 1.505702972412109375e+00 -5.842499732971191406e-01 2.969239950180053711e-01 -4.170019924640655518e-01 -1.974930018186569214e-01 1.927299983799457550e-02 -5.584539771080017090e-01 -1.769577980041503906e+00 1.680899970233440399e-02 -3.523287057876586914e+00 2.070319950580596924e-01 -2.098370045423507690e-01 -4.180789887905120850e-01 -3.588699921965599060e-02 9.011399745941162109e-02 1.233329996466636658e-01 -1.218935966491699219e+00 -3.333939909934997559e-01 5.487030148506164551e-01 -1.515648007392883301e+00 -3.148950040340423584e-01 4.995329976081848145e-01 1.201099995523691177e-02 5.675100088119506836e-01 1.247323036193847656e+00 3.241110146045684814e-01 2.599450051784515381e-01 3.110999986529350281e-02 -1.000128984451293945e+00 4.190700054168701172e-01 8.828060030937194824e-01 1.102578997611999512e+00 -2.691110074520111084e-01 -1.023185968399047852e+00 1.479488015174865723e+00 1.740520000457763672e-01 6.489790081977844238e-01 2.233200073242187500e-01 2.188841104507446289e+00 -1.227210015058517456e-01
9.839389920234680176e-01 5.138459801673889160e-01 -2.164289951324462891e-01 9.764519929885864258e-01 7.470620274543762207e-01 -1.059859037399291992e+00 5.297290086746215820e-01 1.530336976051330566e+00 3.879089951515197754e-01 -1.512456059455871582e+00 1.322934031486511230e+00 -1.212602019309997559e+00 1.412781953811645508e+00 -1.834990978240966797e+00 1.400802016258239746e+00 2.971780002117156982e-01 -1.531306028366088867e+00 -1.273344039916992188e+00 -3.377709984779357910e-01 6.162670254707336426e-01 -6.214410066604614258e-01 -1.785274028778076172e+00 2.307490110397338867e+00 -1.617279946804046631e-01 1.856089979410171509e-01 1.817299984395503998e-02 1.095679998397827148e-01 -1.161393046379089355e+00 -5.247380137443542480e-01 1.127759963274002075e-01 -2.382840067148208618e-01 -5.014110207557678223e-01 5.489199757575988770e-01 -7.371699810028076172e-01 -2.400059998035430908e-01 4.985510110855102539e-01 -7.881910204887390137e-01 -2.074261903762817383e+00 -1.138080000877380371e+00 2.922860085964202881e-01 5.772500038146972656e-01 9.975990056991577148e-01 8.855630159378051758e-01 7.805410027503967285e-01 -5.094910264015197754e-01 6.290699839591979980e-01 -2.065217018127441406e+00 1.772815942764282227e+00 -6.644790172576904297e-01 8.007649779319763184e-01 -4.846970140933990479e-01 -7.524740099906921387e-01 9.896339774131774902e-01 -9.724649786949157715e-01 2.119960039854049683e-01 1.635542988777160645e+00 1.173068046569824219e+00 -5.653970241546630859e-01 -1.087509989738464355e-01 1.313039958477020264e-01 4.459669888019561768e-01 -1.106979995965957642e-01 1.958580017089843750e-01 -5.639500170946121216e-02 -5.041419863700866699e-01 4.003410041332244873e-01 1.054334998130798340e+00 -1.756518959999084473e+00 9.853690266609191895e-01 6.943740248680114746e-01 -5.877990126609802246e-01 -1.064746975898742676e+00
2.213953018188476562e+00 1.475039958953857422e+00 -1.695209980010986328e+00 2.100919008255004883e+00 -6.591249704360961914e-01 -1.837079048156738281e+00 -8.041009902954101562e-01 8.744599819183349609e-01 3.477889895439147949e-01 -1.231340020895004272e-01 1.281700003892183304e-02 -1.564699970185756683e-02 -7.016779780387878418e-01 -2.331593036651611328e+00 4.709149897098541260e-01 8.389549851417541504e-01 7.016280293464660645e-01 1.894039958715438843e-01 9.064900130033493042e-02 -4.135890007019042969e-01 5.278580188751220703e-01 -1.325785040855407715e+00 -1.962154984474182129e+00 7.631739974021911621e-01 -9.697960019111633301e-01 -1.897037982940673828e+00 2.686490118503570557e-01 -1.251508951187133789e+00 4.128679931163787842e-01 1.430709004402160645e+00 -1.145943999290466309e+00 -2.465200051665306091e-02 -5.022090077400207520e-01 -8.703820109367370605e-01 7.238590121269226074e-01 2.222496032714843750e+00 1.323730051517486572e-01 -1.681540012359619141e-01 4.364199936389923096e-02 5.725550055503845215e-01 -7.639909982681274414e-01 -2.661130130290985107e-01 5.055130124092102051e-01 -1.767449975013732910e-01 3.189500048756599426e-02 -3.888689875602722168e-01 1.556839942932128906e-01 -2.296900004148483276e-02 7.916100323200225830e-02 1.273707985877990723e+00 -1.233626008033752441e+00 6.440610289573669434e-01 1.072347998619079590e+00 7.525539994239807129e-01 -3.876740038394927979e-01 -1.589828014373779297e+00 -3.491410017013549805e-01 -4.462929964065551758e-01 8.811540007591247559e-01 1.605139970779418945e-01 -3.980160057544708252e-01 -2.716610133647918701e-01 -9.081300348043441772e-02 3.106099963188171387e-01 6.942890286445617676e-01 -4.418970048427581787e-01 4.170849919319152832e-01 5.815280079841613770e-01 6.504000164568424225e-03 9.073479771614074707e-01 1.399150013923645020e+00 -7.613999843597412109e-01
2.781200110912322998e-01 7.357899844646453857e-02 6.613709926605224609e-01 -1.293166995048522949e+00 1.886920034885406494e-01 -6.440910100936889648e-01 -2.033226966857910156e+00 -1.338250041007995605e+00 -1.325678944587707520e+00 3.497759997844696045e-01 -4.027020037174224854e-01 -1.074748992919921875e+00 -7.637289762496948242e-01 -6.373130083084106445e-01 -1.917996048927307129e+00 -7.397130131721496582e-01 9.036669731140136719e-01 1.284708976745605469e+00 -3.189960122108459473e-01 -6.826300173997879028e-02 2.552050054073333740e-01 2.168504953384399414e+00 -6.478600203990936279e-02 -1.998649954795837402e+00 -7.941599935293197632e-02 -3.517610132694244385e-01 -5.987179875373840332e-01 -1.934989988803863525e-01 2.794280052185058594e-01 -5.200999975204467773e-02 1.097540020942687988e+00 5.870100110769271851e-02 5.971469879150390625e-01 2.059639990329742432e-01 -2.487030029296875000e-01 7.835800200700759888e-02 9.838050007820129395e-01 9.587000310420989990e-02 -2.244189977645874023e-01 1.013823986053466797e+00 1.288084030151367188e+00 1.594661951065063477e+00 -2.585529983043670654e-01 1.945910006761550903e-01 5.407869815826416016e-01 -6.892500072717666626e-02 1.609790027141571045e-01 5.165460109710693359e-01 5.137730240821838379e-01 4.754199981689453125e-01 6.017590165138244629e-01 2.537190020084381104e-01 7.929400354623794556e-02 1.372305989265441895e+00 2.366299927234649658e-02 9.720399975776672363e-02 -3.671329915523529053e-01 7.085409760475158691e-01 -9.150109887123107910e-01 -1.028596043586730957e+00 2.809340059757232666e-01 1.877139955759048462e-01 1.210999954491853714e-02 4.867099970579147339e-02 -1.209570020437240601e-01 -2.469909936189651489e-01 7.926239967346191406e-01 -3.768099844455718994e-02 -3.169539868831634521e-01 -2.970232009887695312e+00 1.022040024399757385e-01 2.281024932861328125e+00
