
     Program PWSCF v.5.4.0 starts on 22Sep2019 at 19: 0:45 

     This program is part of the open-source Quantum ESPRESSO suite
     for quantum simulation of materials; please cite
         "P. Giannozzi et al., J. Phys.:Condens. Matter 21 395502 (2009);
          URL http://www.quantum-espresso.org", 
     in publications or presentations arising from this work. More details at
     http://www.quantum-espresso.org/quote

           HOST :    @host@
           ARCH :    
             CC :    cc
            CPP :    cpp
            F90 :    mpif90
            F77 :    gfortran
         DFLAGS :    -D__GFORTRAN -D__STD_F95 -D__FFTW3 -D__MPI -D__PARA
      BLAS LIBS :    -lopenblas
    LAPACK LIBS :    -lopenblas
       FFT LIBS :    -lfftw3
      MASS LIBS :    

     Parallel version (MPI), running on    28 processors
     R & G space division:  proc/nbgrp/npool/nimage =      28
     Waiting for input...
     Reading input from standard input
Warning: card &IONS ignored
Warning: card / ignored
Warning: card &CELL ignored
Warning: card / ignored

     Current dimensions of program PWSCF are:
     Max number of different atomic species (ntypx) = 10
     Max number of k-points (npk) =  40000
     Max angular momentum in pseudopotentials (lmaxx) =  3

     IMPORTANT: XC functional enforced from input :
     Exchange-correlation      = PBE ( 1  4  3  4 0 0)
     Any further DFT definition will be discarded
     Please, verify this is what you really want


     gamma-point specific algorithms are used

     Subspace diagonalization in iterative solution of the eigenvalue problem:
     a serial algorithm will be used


     Parallelization info
     --------------------
     sticks:   dense  smooth     PW     G-vecs:    dense   smooth      PW
     Min         445     445    110                37558    37558    4694
     Max         448     448    112                37564    37564    4708
     Sum       12517   12517   3125              1051747  1051747  131683
     Tot        6259    6259   1563



     bravais-lattice index     =            1
     lattice parameter (alat)  =      18.8973  a.u.
     unit-cell volume          =    6748.3346 (a.u.)^3
     number of atoms/cell      =            5
     number of atomic types    =            2
     number of electrons       =         8.00
     number of Kohn-Sham states=            4
     kinetic-energy cutoff     =     110.0000  Ry
     charge density cutoff     =     440.0000  Ry
     convergence threshold     =      1.0E-06
     mixing beta               =       0.5000
     number of iterations used =            8  plain     mixing
     Exchange-correlation      = PBE ( 1  4  3  4 0 0)

     celldm(1)=  18.897261  celldm(2)=   0.000000  celldm(3)=   0.000000
     celldm(4)=   0.000000  celldm(5)=   0.000000  celldm(6)=   0.000000

     crystal axes: (cart. coord. in units of alat)
               a(1) = (   1.000000   0.000000   0.000000 )  
               a(2) = (   0.000000   1.000000   0.000000 )  
               a(3) = (   0.000000   0.000000   1.000000 )  

     reciprocal axes: (cart. coord. in units 2 pi/alat)
               b(1) = (  1.000000  0.000000  0.000000 )  
               b(2) = (  0.000000  1.000000  0.000000 )  
               b(3) = (  0.000000  0.000000  1.000000 )  


     PseudoPot. # 1 for  H read from file:
     ../pseudo/H.tm.pbe.UPF
     MD5 check sum: 4b614d66af87240b7a5107bfa527a767
     Pseudo is Norm-conserving, Zval =  1.0
     Generated using "atomic" code by A. Dal Corso  v.5.2.0
     Using radial grid of  929 points,  0 beta functions with: 

     PseudoPot. # 2 for  C read from file:
     ../pseudo/C.tm.pbe.UPF
     MD5 check sum: a4f27fcb9b24331b00ace8e732a7e062
     Pseudo is Norm-conserving, Zval =  4.0
     Generated using "atomic" code by A. Dal Corso  v.5.2.0
     Using radial grid of 1073 points,  1 beta functions with: 
                l(1) =   1

     atomic species   valence    mass     pseudopotential
        H              1.00     1.00000      H( 1.00)
        C              4.00     1.00000      C( 1.00)

     No symmetry found



   Cartesian axes

     site n.     atom                  positions (alat units)
         1           H   tau(   1) = (   0.5411260   0.4192820   0.3590950  )
         2           H   tau(   2) = (   0.3968620   0.4995480   0.4420260  )
         3           H   tau(   3) = (   0.5623370   0.5832630   0.4432600  )
         4           H   tau(   4) = (   0.5338760   0.4318030   0.5359670  )
         5           C   tau(   5) = (   0.5069240   0.4858270   0.4427010  )

     number of k points=     1
                       cart. coord. in units 2pi/alat
        k(    1) = (   0.0000000   0.0000000   0.0000000), wk =   2.0000000

     Dense  grid:   525874 G-vectors     FFT dimensions: ( 128, 128, 128)

     Largest allocated arrays     est. size (Mb)     dimensions
        Kohn-Sham Wavefunctions         0.14 Mb     (    2354,    4)
        NL pseudopotentials             0.11 Mb     (    2354,    3)
        Each V/rho on FFT grid          1.25 Mb     (   81920)
        Each G-vector array             0.14 Mb     (   18782)
        G-vector shells                 0.02 Mb     (    2785)
     Largest temporary arrays     est. size (Mb)     dimensions
        Auxiliary wavefunctions         0.29 Mb     (    2354,   16)
        Each subspace H/S matrix        0.00 Mb     (      16,   16)
        Each <psi_i|beta_j> matrix      0.00 Mb     (       3,    4)
        Arrays for rho mixing          10.00 Mb     (   81920,    8)

     Initial potential from superposition of free atoms
     Check: negative starting charge=   -0.000376

     starting charge    7.99992, renormalised to    8.00000

     negative rho (up, down):  3.759E-04 0.000E+00
     Starting wfc are    8 randomized atomic wfcs

     total cpu time spent up to now is        2.9 secs

     per-process dynamical memory:   430.5 Mb

     Self-consistent Calculation

     iteration #  1     ecut=   110.00 Ry     beta=0.50
     Davidson diagonalization with overlap
     ethr =  1.00E-02,  avg # of iterations =  2.0

     negative rho (up, down):  1.780E-04 0.000E+00

     total cpu time spent up to now is        3.5 secs

     total energy              =     -16.02451204 Ry
     Harris-Foulkes estimate   =     -16.38904543 Ry
     estimated scf accuracy    <       0.64890072 Ry

     iteration #  2     ecut=   110.00 Ry     beta=0.50
     Davidson diagonalization with overlap
     ethr =  8.11E-03,  avg # of iterations =  2.0

     negative rho (up, down):  9.424E-05 0.000E+00

     total cpu time spent up to now is        4.1 secs

     total energy              =     -16.15062894 Ry
     Harris-Foulkes estimate   =     -16.17061961 Ry
     estimated scf accuracy    <       0.05142883 Ry

     iteration #  3     ecut=   110.00 Ry     beta=0.50
     Davidson diagonalization with overlap
     ethr =  6.43E-04,  avg # of iterations =  1.0

     negative rho (up, down):  5.822E-06 0.000E+00

     total cpu time spent up to now is        4.4 secs

     total energy              =     -16.14928420 Ry
     Harris-Foulkes estimate   =     -16.15477325 Ry
     estimated scf accuracy    <       0.01155609 Ry

     iteration #  4     ecut=   110.00 Ry     beta=0.50
     Davidson diagonalization with overlap
     ethr =  1.44E-04,  avg # of iterations =  3.0

     negative rho (up, down):  4.282E-06 0.000E+00

     total cpu time spent up to now is        4.9 secs

     total energy              =     -16.15127673 Ry
     Harris-Foulkes estimate   =     -16.15391537 Ry
     estimated scf accuracy    <       0.00626979 Ry

     iteration #  5     ecut=   110.00 Ry     beta=0.50
     Davidson diagonalization with overlap
     ethr =  7.84E-05,  avg # of iterations =  2.0

     negative rho (up, down):  2.362E-06 0.000E+00

     total cpu time spent up to now is        5.5 secs

     total energy              =     -16.15179007 Ry
     Harris-Foulkes estimate   =     -16.15188284 Ry
     estimated scf accuracy    <       0.00026179 Ry

     iteration #  6     ecut=   110.00 Ry     beta=0.50
     Davidson diagonalization with overlap
     ethr =  3.27E-06,  avg # of iterations =  3.0

     total cpu time spent up to now is        6.1 secs

     total energy              =     -16.15186458 Ry
     Harris-Foulkes estimate   =     -16.15186704 Ry
     estimated scf accuracy    <       0.00001578 Ry

     iteration #  7     ecut=   110.00 Ry     beta=0.50
     Davidson diagonalization with overlap
     ethr =  1.97E-07,  avg # of iterations =  3.0

     total cpu time spent up to now is        6.6 secs

     total energy              =     -16.15186761 Ry
     Harris-Foulkes estimate   =     -16.15186969 Ry
     estimated scf accuracy    <       0.00000511 Ry

     iteration #  8     ecut=   110.00 Ry     beta=0.50
     Davidson diagonalization with overlap
     ethr =  6.38E-08,  avg # of iterations =  2.0

     total cpu time spent up to now is        7.1 secs

     total energy              =     -16.15186753 Ry
     Harris-Foulkes estimate   =     -16.15186821 Ry
     estimated scf accuracy    <       0.00000149 Ry

     iteration #  9     ecut=   110.00 Ry     beta=0.50
     Davidson diagonalization with overlap
     ethr =  1.86E-08,  avg # of iterations =  2.0

     total cpu time spent up to now is        7.5 secs

     End of self-consistent calculation

          k = 0.0000 0.0000 0.0000 ( 65842 PWs)   bands (ev):

   -16.6893  -9.3157  -9.2471  -8.9594

     highest occupied level (ev):    -8.9594

!    total energy              =     -16.15186767 Ry
     Harris-Foulkes estimate   =     -16.15186771 Ry
     estimated scf accuracy    <       0.00000010 Ry

     The total energy is the sum of the following terms:

     one-electron contribution =     -39.65353276 Ry
     hartree contribution      =      20.64632765 Ry
     xc contribution           =      -6.28987186 Ry
     ewald contribution        =       9.14520930 Ry

     convergence has been achieved in   9 iterations

     Forces acting on atoms (Ry/au):

     atom    1 type  1   force =    -0.01322156    0.02612567    0.01453971
     atom    2 type  1   force =     0.01864039    0.00226994   -0.00663480
     atom    3 type  1   force =    -0.01933255   -0.02461540   -0.00734644
     atom    4 type  1   force =    -0.00527426    0.00952124   -0.00857560
     atom    5 type  2   force =     0.01918797   -0.01330145    0.00801714

     Total force =     0.057449     Total SCF correction =     0.000285


     entering subroutine stress ...

          total   stress  (Ry/bohr**3)                   (kbar)     P=   -1.69
  -0.00001224  -0.00000130   0.00000165         -1.80     -0.19      0.24
  -0.00000130  -0.00001477  -0.00000367         -0.19     -2.17     -0.54
   0.00000165  -0.00000367  -0.00000748          0.24     -0.54     -1.10


     init_run     :      2.51s CPU      2.54s WALL (       1 calls)
     electrons    :      4.56s CPU      4.64s WALL (       1 calls)
     forces       :      0.90s CPU      0.90s WALL (       1 calls)
     stress       :      1.29s CPU      1.31s WALL (       1 calls)

     Called by init_run:
     wfcinit      :      0.11s CPU      0.11s WALL (       1 calls)
     potinit      :      1.06s CPU      1.07s WALL (       1 calls)

     Called by electrons:
     c_bands      :      2.11s CPU      2.12s WALL (       9 calls)
     sum_band     :      0.47s CPU      0.48s WALL (       9 calls)
     v_of_rho     :      1.90s CPU      1.96s WALL (      10 calls)
     mix_rho      :      0.25s CPU      0.25s WALL (       9 calls)

     Called by c_bands:
     init_us_2    :      0.04s CPU      0.05s WALL (      19 calls)
     regterg      :      2.07s CPU      2.09s WALL (       9 calls)

     Called by sum_band:

     Called by *egterg:
     h_psi        :      2.12s CPU      2.13s WALL (      30 calls)
     g_psi        :      0.01s CPU      0.01s WALL (      20 calls)
     rdiaghg      :      0.00s CPU      0.00s WALL (      29 calls)

     Called by h_psi:
     add_vuspsi   :      0.00s CPU      0.00s WALL (      30 calls)

     General routines
     calbec       :      0.67s CPU      0.67s WALL (      35 calls)
     fft          :      1.79s CPU      1.87s WALL (     117 calls)
     fftw         :      1.47s CPU      1.48s WALL (     128 calls)

     Parallel routines
     fft_scatter  :      1.40s CPU      1.46s WALL (     245 calls)

     PWSCF        :     9.62s CPU         9.78s WALL


   This run was terminated on:  19: 0:55  22Sep2019            

=------------------------------------------------------------------------------=
   JOB DONE.
=------------------------------------------------------------------------------=
