1.459575462341308594e+01 0.000000000000000000e+00 0.000000000000000000e+00 0.000000000000000000e+00 1.459575462341308594e+01 0.000000000000000000e+00 0.000000000000000000e+00 0.000000000000000000e+00 1.459575462341308594e+01
1.461016654968261719e+01 0.000000000000000000e+00 0.000000000000000000e+00 0.000000000000000000e+00 1.461016654968261719e+01 0.000000000000000000e+00 0.000000000000000000e+00 0.000000000000000000e+00 1.461016654968261719e+01
1.465529441833496094e+01 0.000000000000000000e+00 0.000000000000000000e+00 0.000000000000000000e+00 1.465529441833496094e+01 0.000000000000000000e+00 0.000000000000000000e+00 0.000000000000000000e+00 1.465529441833496094e+01
1.467016220092773438e+01 0.000000000000000000e+00 0.000000000000000000e+00 0.000000000000000000e+00 1.467016220092773438e+01 0.000000000000000000e+00 0.000000000000000000e+00 0.000000000000000000e+00 1.467016220092773438e+01
1.460610198974609375e+01 0.000000000000000000e+00 0.000000000000000000e+00 0.000000000000000000e+00 1.460610198974609375e+01 0.000000000000000000e+00 0.000000000000000000e+00 0.000000000000000000e+00 1.460610198974609375e+01
1.453333282470703125e+01 0.000000000000000000e+00 0.000000000000000000e+00 0.000000000000000000e+00 1.453333282470703125e+01 0.000000000000000000e+00 0.000000000000000000e+00 0.000000000000000000e+00 1.453333282470703125e+01
1.466421318054199219e+01 0.000000000000000000e+00 0.000000000000000000e+00 0.000000000000000000e+00 1.466421318054199219e+01 0.000000000000000000e+00 0.000000000000000000e+00 0.000000000000000000e+00 1.466421318054199219e+01
1.473036575317382812e+01 0.000000000000000000e+00 0.000000000000000000e+00 0.000000000000000000e+00 1.473036575317382812e+01 0.000000000000000000e+00 0.000000000000000000e+00 0.000000000000000000e+00 1.473036575317382812e+01
1.462503623962402344e+01 0.000000000000000000e+00 0.000000000000000000e+00 0.000000000000000000e+00 1.462503623962402344e+01 0.000000000000000000e+00 0.000000000000000000e+00 0.000000000000000000e+00 1.462503623962402344e+01
1.452760791778564453e+01 0.000000000000000000e+00 0.000000000000000000e+00 0.000000000000000000e+00 1.452760791778564453e+01 0.000000000000000000e+00 0.000000000000000000e+00 0.000000000000000000e+00 1.452760791778564453e+01
1.461840152740478516e+01 0.000000000000000000e+00 0.000000000000000000e+00 0.000000000000000000e+00 1.461840152740478516e+01 0.000000000000000000e+00 0.000000000000000000e+00 0.000000000000000000e+00 1.461840152740478516e+01
1.448394489288330078e+01 0.000000000000000000e+00 0.000000000000000000e+00 0.000000000000000000e+00 1.448394489288330078e+01 0.000000000000000000e+00 0.000000000000000000e+00 0.000000000000000000e+00 1.448394489288330078e+01
1.459631824493408203e+01 0.000000000000000000e+00 0.000000000000000000e+00 0.000000000000000000e+00 1.459631824493408203e+01 0.000000000000000000e+00 0.000000000000000000e+00 0.000000000000000000e+00 1.459631824493408203e+01
1.476107406616210938e+01 0.000000000000000000e+00 0.000000000000000000e+00 0.000000000000000000e+00 1.476107406616210938e+01 0.000000000000000000e+00 0.000000000000000000e+00 0.000000000000000000e+00 1.476107406616210938e+01
1.458888053894042969e+01 0.000000000000000000e+00 0.000000000000000000e+00 0.000000000000000000e+00 1.458888053894042969e+01 0.000000000000000000e+00 0.000000000000000000e+00 0.000000000000000000e+00 1.458888053894042969e+01
1.449378395080566406e+01 0.000000000000000000e+00 0.000000000000000000e+00 0.000000000000000000e+00 1.449378395080566406e+01 0.000000000000000000e+00 0.000000000000000000e+00 0.000000000000000000e+00 1.449378395080566406e+01
1.463597106933593750e+01 0.000000000000000000e+00 0.000000000000000000e+00 0.000000000000000000e+00 1.463597106933593750e+01 0.000000000000000000e+00 0.000000000000000000e+00 0.000000000000000000e+00 1.463597106933593750e+01
1.444608974456787109e+01 0.000000000000000000e+00 0.000000000000000000e+00 0.000000000000000000e+00 1.444608974456787109e+01 0.000000000000000000e+00 0.000000000000000000e+00 0.000000000000000000e+00 1.444608974456787109e+01
1.472711277008056641e+01 0.000000000000000000e+00 0.000000000000000000e+00 0.000000000000000000e+00 1.472711277008056641e+01 0.000000000000000000e+00 0.000000000000000000e+00 0.000000000000000000e+00 1.472711277008056641e+01
1.459093379974365234e+01 0.000000000000000000e+00 0.000000000000000000e+00 0.000000000000000000e+00 1.459093379974365234e+01 0.000000000000000000e+00 0.000000000000000000e+00 0.000000000000000000e+00 1.459093379974365234e+01
1.459599590301513672e+01 0.000000000000000000e+00 0.000000000000000000e+00 0.000000000000000000e+00 1.459599590301513672e+01 0.000000000000000000e+00 0.000000000000000000e+00 0.000000000000000000e+00 1.459599590301513672e+01
