-1.865600463867187500e+03
-1.866070800781250000e+03
-1.866157592773437500e+03
-1.866781616210937500e+03
-1.865349609375000000e+03
-1.863720214843750000e+03
-1.866875732421875000e+03
-1.867651000976562500e+03
-1.863740600585937500e+03
-1.865336181640625000e+03
-1.864847045898437500e+03
-1.863895507812500000e+03
-1.865257446289062500e+03
-1.865543090820312500e+03
-1.864404052734375000e+03
-1.865124755859375000e+03
-1.866032958984375000e+03
-1.865291015625000000e+03
-1.868039428710937500e+03
-1.867498168945312500e+03
-1.864167114257812500e+03
