-2.134146732128606505e+00 -1.273530004904497748e+00 3.104526638826796484e-02 -1.273530004904497748e+00 -3.742508735558440769e+00 4.027645838429698422e-02 3.104526638826796484e-02 4.027645838429698422e-02 -2.790029477031049421e+00
