
     Program PWSCF v.5.4.0 starts on 22Sep2019 at 18:23:22 

     This program is part of the open-source Quantum ESPRESSO suite
     for quantum simulation of materials; please cite
         "P. Giannozzi et al., J. Phys.:Condens. Matter 21 395502 (2009);
          URL http://www.quantum-espresso.org", 
     in publications or presentations arising from this work. More details at
     http://www.quantum-espresso.org/quote

           HOST :    @host@
           ARCH :    
             CC :    cc
            CPP :    cpp
            F90 :    mpif90
            F77 :    gfortran
         DFLAGS :    -D__GFORTRAN -D__STD_F95 -D__FFTW3 -D__MPI -D__PARA
      BLAS LIBS :    -lopenblas
    LAPACK LIBS :    -lopenblas
       FFT LIBS :    -lfftw3
      MASS LIBS :    

     Parallel version (MPI), running on    28 processors
     R & G space division:  proc/nbgrp/npool/nimage =      28
     Waiting for input...
     Reading input from standard input
Warning: card &IONS ignored
Warning: card / ignored
Warning: card &CELL ignored
Warning: card / ignored

     Current dimensions of program PWSCF are:
     Max number of different atomic species (ntypx) = 10
     Max number of k-points (npk) =  40000
     Max angular momentum in pseudopotentials (lmaxx) =  3

     IMPORTANT: XC functional enforced from input :
     Exchange-correlation      = PBE ( 1  4  3  4 0 0)
     Any further DFT definition will be discarded
     Please, verify this is what you really want


     gamma-point specific algorithms are used

     Subspace diagonalization in iterative solution of the eigenvalue problem:
     a serial algorithm will be used


     Parallelization info
     --------------------
     sticks:   dense  smooth     PW     G-vecs:    dense   smooth      PW
     Min         445     445    110                37558    37558    4694
     Max         448     448    112                37564    37564    4708
     Sum       12517   12517   3125              1051747  1051747  131683
     Tot        6259    6259   1563



     bravais-lattice index     =            1
     lattice parameter (alat)  =      18.8973  a.u.
     unit-cell volume          =    6748.3346 (a.u.)^3
     number of atoms/cell      =            5
     number of atomic types    =            2
     number of electrons       =         8.00
     number of Kohn-Sham states=            4
     kinetic-energy cutoff     =     110.0000  Ry
     charge density cutoff     =     440.0000  Ry
     convergence threshold     =      1.0E-06
     mixing beta               =       0.5000
     number of iterations used =            8  plain     mixing
     Exchange-correlation      = PBE ( 1  4  3  4 0 0)

     celldm(1)=  18.897261  celldm(2)=   0.000000  celldm(3)=   0.000000
     celldm(4)=   0.000000  celldm(5)=   0.000000  celldm(6)=   0.000000

     crystal axes: (cart. coord. in units of alat)
               a(1) = (   1.000000   0.000000   0.000000 )  
               a(2) = (   0.000000   1.000000   0.000000 )  
               a(3) = (   0.000000   0.000000   1.000000 )  

     reciprocal axes: (cart. coord. in units 2 pi/alat)
               b(1) = (  1.000000  0.000000  0.000000 )  
               b(2) = (  0.000000  1.000000  0.000000 )  
               b(3) = (  0.000000  0.000000  1.000000 )  


     PseudoPot. # 1 for  H read from file:
     ../pseudo/H.tm.pbe.UPF
     MD5 check sum: 4b614d66af87240b7a5107bfa527a767
     Pseudo is Norm-conserving, Zval =  1.0
     Generated using "atomic" code by A. Dal Corso  v.5.2.0
     Using radial grid of  929 points,  0 beta functions with: 

     PseudoPot. # 2 for  C read from file:
     ../pseudo/C.tm.pbe.UPF
     MD5 check sum: a4f27fcb9b24331b00ace8e732a7e062
     Pseudo is Norm-conserving, Zval =  4.0
     Generated using "atomic" code by A. Dal Corso  v.5.2.0
     Using radial grid of 1073 points,  1 beta functions with: 
                l(1) =   1

     atomic species   valence    mass     pseudopotential
        H              1.00     1.00000      H( 1.00)
        C              4.00     1.00000      C( 1.00)

     No symmetry found



   Cartesian axes

     site n.     atom                  positions (alat units)
         1           H   tau(   1) = (   0.5451390   0.4326970   0.3566450  )
         2           H   tau(   2) = (   0.4058590   0.4945390   0.4527440  )
         3           H   tau(   3) = (   0.5617370   0.5772130   0.4648880  )
         4           H   tau(   4) = (   0.5469570   0.4130460   0.5374150  )
         5           C   tau(   5) = (   0.5162840   0.4773140   0.4543900  )

     number of k points=     1
                       cart. coord. in units 2pi/alat
        k(    1) = (   0.0000000   0.0000000   0.0000000), wk =   2.0000000

     Dense  grid:   525874 G-vectors     FFT dimensions: ( 128, 128, 128)

     Largest allocated arrays     est. size (Mb)     dimensions
        Kohn-Sham Wavefunctions         0.14 Mb     (    2354,    4)
        NL pseudopotentials             0.11 Mb     (    2354,    3)
        Each V/rho on FFT grid          1.25 Mb     (   81920)
        Each G-vector array             0.14 Mb     (   18782)
        G-vector shells                 0.02 Mb     (    2785)
     Largest temporary arrays     est. size (Mb)     dimensions
        Auxiliary wavefunctions         0.29 Mb     (    2354,   16)
        Each subspace H/S matrix        0.00 Mb     (      16,   16)
        Each <psi_i|beta_j> matrix      0.00 Mb     (       3,    4)
        Arrays for rho mixing          10.00 Mb     (   81920,    8)

     Initial potential from superposition of free atoms
     Check: negative starting charge=   -0.000381

     starting charge    7.99992, renormalised to    8.00000

     negative rho (up, down):  3.811E-04 0.000E+00
     Starting wfc are    8 randomized atomic wfcs

     total cpu time spent up to now is      101.7 secs

     per-process dynamical memory:   430.8 Mb

     Self-consistent Calculation

     iteration #  1     ecut=   110.00 Ry     beta=0.50
     Davidson diagonalization with overlap
     ethr =  1.00E-02,  avg # of iterations =  2.0

     negative rho (up, down):  1.802E-04 0.000E+00

     total cpu time spent up to now is      112.1 secs

     total energy              =     -16.02333246 Ry
     Harris-Foulkes estimate   =     -16.39950122 Ry
     estimated scf accuracy    <       0.66906207 Ry

     iteration #  2     ecut=   110.00 Ry     beta=0.50
     Davidson diagonalization with overlap
     ethr =  8.36E-03,  avg # of iterations =  2.0

     negative rho (up, down):  9.494E-05 0.000E+00

     total cpu time spent up to now is      112.6 secs

     total energy              =     -16.15259797 Ry
     Harris-Foulkes estimate   =     -16.17219026 Ry
     estimated scf accuracy    <       0.05069887 Ry

     iteration #  3     ecut=   110.00 Ry     beta=0.50
     Davidson diagonalization with overlap
     ethr =  6.34E-04,  avg # of iterations =  1.0

     negative rho (up, down):  5.539E-06 0.000E+00

     total cpu time spent up to now is      113.1 secs

     total energy              =     -16.15105523 Ry
     Harris-Foulkes estimate   =     -16.15653235 Ry
     estimated scf accuracy    <       0.01152001 Ry

     iteration #  4     ecut=   110.00 Ry     beta=0.50
     Davidson diagonalization with overlap
     ethr =  1.44E-04,  avg # of iterations =  3.0

     negative rho (up, down):  4.457E-06 0.000E+00

     total cpu time spent up to now is      113.6 secs

     total energy              =     -16.15303799 Ry
     Harris-Foulkes estimate   =     -16.15544008 Ry
     estimated scf accuracy    <       0.00567901 Ry

     iteration #  5     ecut=   110.00 Ry     beta=0.50
     Davidson diagonalization with overlap
     ethr =  7.10E-05,  avg # of iterations =  2.0

     negative rho (up, down):  2.466E-06 0.000E+00

     total cpu time spent up to now is      114.0 secs

     total energy              =     -16.15340766 Ry
     Harris-Foulkes estimate   =     -16.15353950 Ry
     estimated scf accuracy    <       0.00035030 Ry

     iteration #  6     ecut=   110.00 Ry     beta=0.50
     Davidson diagonalization with overlap
     ethr =  4.38E-06,  avg # of iterations =  3.0

     negative rho (up, down):  6.770E-08 0.000E+00

     total cpu time spent up to now is      114.6 secs

     total energy              =     -16.15354001 Ry
     Harris-Foulkes estimate   =     -16.15353862 Ry
     estimated scf accuracy    <       0.00000754 Ry

     iteration #  7     ecut=   110.00 Ry     beta=0.50
     Davidson diagonalization with overlap
     ethr =  9.42E-08,  avg # of iterations =  3.0

     total cpu time spent up to now is      115.1 secs

     total energy              =     -16.15353811 Ry
     Harris-Foulkes estimate   =     -16.15354429 Ry
     estimated scf accuracy    <       0.00001316 Ry

     iteration #  8     ecut=   110.00 Ry     beta=0.50
     Davidson diagonalization with overlap
     ethr =  9.42E-08,  avg # of iterations =  2.0

     total cpu time spent up to now is      115.6 secs

     End of self-consistent calculation

          k = 0.0000 0.0000 0.0000 ( 65842 PWs)   bands (ev):

   -16.7491  -9.4025  -9.2278  -8.9932

     highest occupied level (ev):    -8.9932

!    total energy              =     -16.15353964 Ry
     Harris-Foulkes estimate   =     -16.15353996 Ry
     estimated scf accuracy    <       0.00000067 Ry

     The total energy is the sum of the following terms:

     one-electron contribution =     -39.91626520 Ry
     hartree contribution      =      20.78043227 Ry
     xc contribution           =      -6.31404674 Ry
     ewald contribution        =       9.29634004 Ry

     convergence has been achieved in   8 iterations

     Forces acting on atoms (Ry/au):

     atom    1 type  1   force =    -0.00099775    0.00698865    0.01906383
     atom    2 type  1   force =     0.02176908   -0.01286735    0.00634428
     atom    3 type  1   force =     0.00493271   -0.00904147   -0.00138735
     atom    4 type  1   force =    -0.00391598   -0.00154159    0.00009083
     atom    5 type  2   force =    -0.02178806    0.01646175   -0.02411158

     Total force =     0.050456     Total SCF correction =     0.000636


     entering subroutine stress ...

          total   stress  (Ry/bohr**3)                   (kbar)     P=   -1.04
  -0.00000840   0.00000325  -0.00000057         -1.24      0.48     -0.08
   0.00000325  -0.00000560  -0.00000247          0.48     -0.82     -0.36
  -0.00000057  -0.00000247  -0.00000714         -0.08     -0.36     -1.05


     init_run     :      1.84s CPU     88.66s WALL (       1 calls)
     electrons    :      3.86s CPU     13.96s WALL (       1 calls)
     forces       :      0.90s CPU      0.90s WALL (       1 calls)
     stress       :      1.13s CPU      1.13s WALL (       1 calls)

     Called by init_run:
     wfcinit      :      0.07s CPU      2.95s WALL (       1 calls)
     potinit      :      0.78s CPU     41.07s WALL (       1 calls)

     Called by electrons:
     c_bands      :      1.63s CPU      6.38s WALL (       8 calls)
     sum_band     :      0.43s CPU      2.27s WALL (       8 calls)
     v_of_rho     :      1.68s CPU     14.80s WALL (       9 calls)
     mix_rho      :      0.21s CPU      0.78s WALL (       8 calls)

     Called by c_bands:
     init_us_2    :      0.04s CPU      0.04s WALL (      17 calls)
     regterg      :      1.60s CPU      6.35s WALL (       8 calls)

     Called by sum_band:

     Called by *egterg:
     h_psi        :      1.61s CPU      8.91s WALL (      27 calls)
     g_psi        :      0.01s CPU      0.01s WALL (      18 calls)
     rdiaghg      :      0.00s CPU      0.00s WALL (      26 calls)

     Called by h_psi:
     add_vuspsi   :      0.00s CPU      0.00s WALL (      27 calls)

     General routines
     calbec       :      0.39s CPU      0.43s WALL (      32 calls)
     fft          :      1.61s CPU     21.63s WALL (     106 calls)
     fftw         :      1.23s CPU      8.69s WALL (     120 calls)

     Parallel routines
     fft_scatter  :      1.17s CPU     24.49s WALL (     226 calls)

     PWSCF        :  0m 8.09s CPU     1m57.70s WALL


   This run was terminated on:  18:25:20  22Sep2019            

=------------------------------------------------------------------------------=
   JOB DONE.
=------------------------------------------------------------------------------=
