    6    6    1    1
  0.5000000E+03  0.3000000E-08  0.1000000E-08  0.1000000E-08  0.5000000E-15
  1.000000000000000E-004
  CAR 
 unknown system                          
     16      2     12
 
  0.0000000E+00  0.2500000E+00  0.2500000E+00  0.5000000E+00
    1      -24.956218   1.000000
    2      -24.470871   1.000000
    3      -12.759916   1.000000
    4      -12.250207   1.000000
    5       -9.533071   1.000000
    6       -9.026984   1.000000
    7       -7.333219   1.000000
    8       -6.814276   1.000000
    9       -1.387344   0.000000
   10       -0.695414   0.000000
   11        0.134255   0.000000
   12        0.459391   0.000000
 
  0.0000000E+00 -0.2500000E+00  0.2500000E+00  0.5000000E+00
    1      -24.956218   1.000000
    2      -24.470871   1.000000
    3      -12.759916   1.000000
    4      -12.250207   1.000000
    5       -9.533071   1.000000
    6       -9.026984   1.000000
    7       -7.333219   1.000000
    8       -6.814276   1.000000
    9       -1.387342   0.000000
   10       -0.695414   0.000000
   11        0.134431   0.000000
   12        0.468029   0.000000
