 running on   32 total cores
 distrk:  each k-point on   32 cores,    1 groups
 distr:  one band on   16 cores,    2 groups
 using from now: INCAR     
 vasp.5.4.4.18Apr17-6-g9f103f2a35 (build Nov 25 2019 16:34:31) complex          
  
 POSCAR found type information on POSCAR  O  H 
 POSCAR found :  2 types and       6 ions
 scaLAPACK will be used

 ----------------------------------------------------------------------------- 
|                                                                             |
|           W    W    AA    RRRRR   N    N  II  N    N   GGGG   !!!           |
|           W    W   A  A   R    R  NN   N  II  NN   N  G    G  !!!           |
|           W    W  A    A  R    R  N N  N  II  N N  N  G       !!!           |
|           W WW W  AAAAAA  RRRRR   N  N N  II  N  N N  G  GGG   !            |
|           WW  WW  A    A  R   R   N   NN  II  N   NN  G    G                |
|           W    W  A    A  R    R  N    N  II  N    N   GGGG   !!!           |
|                                                                             |
|      For optimal performance we recommend to set                            |
|        NCORE= 4 - approx SQRT( number of cores)                             |
|      NCORE specifies how many cores store one orbital (NPAR=cpu/NCORE).     |
|      This setting can  greatly improve the performance of VASP for DFT.     |
|      The default,   NCORE=1            might be grossly inefficient         |
|      on modern multi-core architectures or massively parallel machines.     |
|      Do your own testing !!!!                                               |
|      Unfortunately you need to use the default for GW and RPA calculations. |
|      (for HF NCORE is supported but not extensively tested yet)             |
|                                                                             |
 ----------------------------------------------------------------------------- 

 LDA part: xc-table for Pade appr. of Perdew
 generate k-points for:    1    2    2
 POSCAR, INCAR and KPOINTS ok, starting setup
 FFT: planning ...
 WAVECAR not read
 WARNING: random wavefunctions but no delay for mixing, default for NELMDL
 entering main loop
       N       E                     dE             d eps       ncg     rms          rms(c)
DAV:   1     0.151942293053E+03    0.15194E+03   -0.47351E+03    64   0.142E+03
DAV:   2     0.504372071061E+02   -0.10151E+03   -0.10080E+03    96   0.138E+02
DAV:   3    -0.234808837051E+02   -0.73918E+02   -0.73075E+02    88   0.136E+02
DAV:   4    -0.318009736401E+02   -0.83201E+01   -0.83120E+01    64   0.607E+01
DAV:   5    -0.319956896987E+02   -0.19472E+00   -0.19464E+00    72   0.123E+01    0.181E+01
RMM:   6    -0.286330398752E+02    0.33626E+01   -0.12658E+01    64   0.251E+01    0.179E+01
RMM:   7    -0.285889030570E+02    0.44137E-01   -0.11889E+00    76   0.529E+00    0.158E+01
RMM:   8    -0.295141477303E+02   -0.92524E+00   -0.71985E+00    62   0.226E+01    0.122E+01
RMM:   9    -0.283677178878E+02    0.11464E+01   -0.26761E+00    64   0.120E+01    0.415E+00
RMM:  10    -0.283779019853E+02   -0.10184E-01   -0.19049E-01    76   0.251E+00    0.212E+00
RMM:  11    -0.283754969855E+02    0.24050E-02   -0.84546E-03    64   0.528E-01    0.135E+00
RMM:  12    -0.283674827581E+02    0.80142E-02   -0.80844E-02    60   0.171E+00    0.416E-01
RMM:  13    -0.283694367872E+02   -0.19540E-02   -0.78192E-03    76   0.431E-01    0.488E-01
RMM:  14    -0.283761494150E+02   -0.67126E-02   -0.58396E-03    64   0.429E-01    0.670E-01
RMM:  15    -0.283774072628E+02   -0.12578E-02   -0.33986E-03    62   0.448E-01    0.198E-01
RMM:  16    -0.283779591287E+02   -0.55187E-03   -0.22861E-03    72   0.314E-01    0.481E-02
RMM:  17    -0.283805420500E+02   -0.25829E-02   -0.59080E-03    58   0.519E-01    0.374E-01
RMM:  18    -0.283805524493E+02   -0.10399E-04   -0.28069E-04    64   0.107E-01    0.296E-01
RMM:  19    -0.283801963892E+02    0.35606E-03   -0.43734E-03    59   0.453E-01    0.151E-01
RMM:  20    -0.283802486332E+02   -0.52244E-04   -0.18840E-03    76   0.232E-01    0.279E-01
RMM:  21    -0.283800949816E+02    0.15365E-03   -0.91402E-05    66   0.605E-02    0.207E-01
RMM:  22    -0.283795996362E+02    0.49535E-03   -0.78070E-04    58   0.171E-01    0.413E-02
RMM:  23    -0.283796568430E+02   -0.57207E-04   -0.85793E-05    66   0.509E-02    0.619E-02
RMM:  24    -0.283801085061E+02   -0.45166E-03   -0.48512E-04    62   0.144E-01    0.641E-02
RMM:  25    -0.283800707697E+02    0.37736E-04   -0.48778E-04    66   0.122E-01    0.150E-01
RMM:  26    -0.283803490761E+02   -0.27831E-03   -0.59798E-04    52   0.161E-01    0.337E-02
RMM:  27    -0.283806542563E+02   -0.30518E-03   -0.44457E-04    66   0.123E-01    0.709E-02
RMM:  28    -0.283810199691E+02   -0.36571E-03   -0.57626E-05    58   0.492E-02    0.678E-02
RMM:  29    -0.283813525459E+02   -0.33258E-03   -0.29230E-05    68   0.294E-02    0.492E-02
RMM:  30    -0.283815653062E+02   -0.21276E-03   -0.12812E-04    60   0.723E-02    0.156E-02
RMM:  31    -0.283817200697E+02   -0.15476E-03   -0.11829E-05    66   0.185E-02    0.277E-02
RMM:  32    -0.283817569035E+02   -0.36834E-04   -0.14723E-06    62   0.780E-03    0.228E-02
RMM:  33    -0.283817999693E+02   -0.43066E-04   -0.22576E-05    56   0.296E-02    0.147E-03
RMM:  34    -0.283818072211E+02   -0.72517E-05   -0.20923E-06    72   0.758E-03    0.472E-03
RMM:  35    -0.283818140496E+02   -0.68285E-05   -0.10479E-06    60   0.665E-03    0.626E-04
RMM:  36    -0.283818199012E+02   -0.58517E-05   -0.42137E-07    66   0.334E-03    0.195E-03
RMM:  37    -0.283818205076E+02   -0.60640E-06   -0.11919E-07    60   0.229E-03    0.454E-04
RMM:  38    -0.283818220623E+02   -0.15547E-05   -0.12368E-07    60   0.199E-03    0.129E-03
RMM:  39    -0.283818227714E+02   -0.70913E-06   -0.15285E-08    44   0.727E-04    0.898E-04
RMM:  40    -0.283818230923E+02   -0.32083E-06   -0.14733E-08    44   0.768E-04    0.453E-04
RMM:  41    -0.283818232373E+02   -0.14504E-06   -0.14046E-08    42   0.732E-04    0.108E-04
RMM:  42    -0.283818233472E+02   -0.10990E-06   -0.12061E-08    40   0.658E-04    0.108E-04
RMM:  43    -0.283818234491E+02   -0.10191E-06   -0.67289E-09    39   0.490E-04    0.145E-04
RMM:  44    -0.283818234914E+02   -0.42286E-07   -0.31900E-09    42   0.322E-04    0.164E-04
RMM:  45    -0.283818235601E+02   -0.68647E-07   -0.30387E-09    40   0.326E-04    0.211E-04
RMM:  46    -0.283818236056E+02   -0.45580E-07   -0.31148E-09    41   0.352E-04    0.708E-05
RMM:  47    -0.283818236686E+02   -0.62954E-07   -0.14313E-09    42   0.220E-04    0.859E-05
RMM:  48    -0.283818237856E+02   -0.11703E-06   -0.89151E-10    32   0.180E-04    0.159E-04
RMM:  49    -0.283818238270E+02   -0.41437E-07   -0.19996E-10    30   0.150E-04    0.887E-05
RMM:  50    -0.283818238682E+02   -0.41106E-07   -0.34155E-10    28   0.160E-04    0.100E-04
RMM:  51    -0.283818238752E+02   -0.70813E-08    0.00000E+00    30   0.135E-04
   1 F= -.28381824E+02 E0= -.28381824E+02  d E =-.864677E-14
