  5.41646000   4.01132000   3.51118000   4.13161000   4.70677000   4.43116000   5.63096000   5.52167000   4.45038000   5.49988000   4.00341000   5.34265000   5.19271000   4.55775000   4.43687000 
  5.18844000   3.96990000   3.66760000   3.87344000   4.70775000   4.53022000   5.44950000   5.58010000   4.50397000   5.26120000   4.06165000   5.46098000   4.97259000   4.56830000   4.54438000 
  5.44725000   3.96923000   3.53567000   4.00377000   4.73407000   4.36056000   5.62657000   5.51725000   4.35069000   5.36131000   3.99886000   5.31797000   5.10277000   4.56980000   4.39082000 
  5.39616000   4.11654000   3.52950000   3.91556000   4.89398000   4.34563000   5.56830000   5.74045000   4.35385000   5.33366000   4.16890000   5.27789000   5.03987000   4.75511000   4.36916000 
  5.41550000   4.01938000   3.49390000   4.12639000   4.69831000   4.45391000   5.63808000   5.54793000   4.44717000   5.48690000   4.01684000   5.32159000   5.19371000   4.55448000   4.43844000 
  5.31242000   3.87526000   3.54103000   3.79832000   4.59569000   4.34387000   5.44825000   5.40436000   4.35117000   5.19305000   3.90529000   5.27702000   4.91392000   4.46964000   4.36314000 
  5.39810000   4.02885000   3.53692000   4.04330000   4.89495000   4.35624000   5.64587000   5.64850000   4.23232000   5.35004000   4.20176000   5.32927000   5.11540000   4.69077000   4.36393000 
  5.38262000   4.24227000   3.52798000   4.04521000   4.96201000   4.47429000   5.63979000   5.71620000   4.52322000   5.32597000   4.11416000   5.35269000   5.12371000   4.75233000   4.46794000 
  5.18609000   3.98672000   3.68952000   3.90510000   4.72857000   4.52813000   5.43308000   5.58537000   4.48881000   5.28117000   4.05774000   5.44301000   4.96985000   4.56506000   4.54548000 
  5.44963000   3.95507000   3.52700000   3.96036000   4.70501000   4.33921000   5.62147000   5.51819000   4.34253000   5.38479000   4.01566000   5.26439000   5.08828000   4.57121000   4.36001000 
  5.24628000   4.23370000   3.46601000   3.91582000   4.96729000   4.35800000   5.48440000   5.72232000   4.44380000   5.22235000   4.15623000   5.26315000   4.98932000   4.75178000   4.39498000 
  5.44161000   3.95971000   3.55292000   4.00083000   4.71571000   4.36427000   5.65770000   5.53250000   4.37403000   5.35992000   4.00821000   5.29920000   5.10101000   4.57007000   4.38869000 
  5.30303000   3.86627000   3.55354000   3.80759000   4.59296000   4.34664000   5.44538000   5.42367000   4.35198000   5.18355000   3.92680000   5.27035000   4.91496000   4.46722000   4.36236000 
  5.22589000   3.83855000   3.51544000   3.84746000   4.58341000   4.29186000   5.36647000   5.47081000   4.28847000   5.13877000   4.00921000   5.32751000   4.92836000   4.45954000   4.37062000 
  4.95742000   4.17342000   3.59961000   3.57351000   4.91008000   4.42182000   5.19161000   5.74056000   4.41453000   4.97694000   4.22689000   5.33639000   4.66540000   4.78737000   4.44253000 
  5.39152000   4.16841000   3.51127000   4.00285000   4.79823000   4.45851000   5.48147000   5.79053000   4.41873000   5.45266000   4.21875000   5.33720000   5.10030000   4.71493000   4.41554000 
  5.24244000   4.03266000   3.68179000   3.78725000   4.81328000   4.52951000   5.40808000   5.60938000   4.52720000   5.16133000   4.16318000   5.49109000   4.88589000   4.67609000   4.53546000 
  5.39670000   4.15852000   3.56756000   3.99718000   4.79144000   4.38981000   5.42839000   5.71810000   4.36797000   5.39802000   4.24388000   5.38641000   5.08584000   4.70591000   4.43774000 
  5.27867000   3.81540000   3.52761000   3.85535000   4.59016000   4.33803000   5.39861000   5.45393000   4.33982000   5.15862000   3.93444000   5.29750000   4.91898000   4.46853000   4.36399000 
  5.39614000   4.16767000   3.52035000   4.01415000   4.83552000   4.40150000   5.51938000   5.70761000   4.39230000   5.45447000   4.21318000   5.32566000   5.09567000   4.71925000   4.42270000 
  5.44149000   4.33173000   3.59692000   4.08873000   4.94098000   4.51961000   5.61076000   5.73528000   4.63509000   5.46403000   4.15919000   5.36982000   5.16216000   4.77379000   4.54352000 
  5.47437000   4.11412000   3.61483000   3.98855000   4.90152000   4.44559000   5.65592000   5.73259000   4.45811000   5.39759000   4.21206000   5.39106000   5.11348000   4.75852000   4.46532000 
  5.37297000   4.16311000   3.60151000   3.98715000   4.90027000   4.39532000   5.62745000   5.69831000   4.47516000   5.28093000   4.25078000   5.41009000   5.06675000   4.75556000   4.45832000 
  5.24787000   3.96041000   3.67753000   3.89290000   4.67330000   4.55501000   5.48759000   5.53989000   4.51994000   5.21154000   4.05170000   5.47678000   4.96698000   4.57614000   4.53884000 
  5.45209000   4.08369000   3.46512000   4.09796000   4.84508000   4.33597000   5.66334000   5.63966000   4.37414000   5.42698000   4.11974000   5.26543000   5.17124000   4.70847000   4.36770000 
  5.37121000   4.22809000   3.58734000   3.98762000   5.09169000   4.30643000   5.60562000   5.79246000   4.37415000   5.26835000   4.36862000   5.40143000   5.07833000   4.84646000   4.43818000 
  5.35457000   4.21924000   3.47224000   4.00519000   4.89494000   4.26060000   5.52565000   5.72008000   4.42871000   5.23558000   4.19299000   5.31203000   5.04758000   4.74617000   4.37193000 
  5.28913000   4.18785000   3.48368000   3.91310000   4.98597000   4.36941000   5.48176000   5.74743000   4.41302000   5.22509000   4.16364000   5.27941000   4.98597000   4.75134000   4.39377000 
  5.36286000   4.23105000   3.60976000   4.01031000   5.09185000   4.31327000   5.59444000   5.76938000   4.37642000   5.24218000   4.37763000   5.39890000   5.08025000   4.84737000   4.43576000 
  5.39553000   4.19977000   3.61566000   3.97329000   5.02051000   4.39530000   5.59210000   5.79496000   4.43128000   5.33273000   4.33173000   5.34400000   5.07326000   4.85761000   4.42845000 
  5.25192000   4.22796000   3.49188000   3.88783000   4.98963000   4.35725000   5.47047000   5.73124000   4.43278000   5.23330000   4.13407000   5.29787000   4.99143000   4.75150000   4.39092000 
  5.37609000   4.16747000   3.62850000   3.99470000   4.88093000   4.41353000   5.62448000   5.66721000   4.46990000   5.28567000   4.24544000   5.41349000   5.06571000   4.75984000   4.45471000 
  5.37409000   4.28876000   3.53849000   4.06129000   4.99087000   4.47699000   5.64348000   5.70090000   4.53527000   5.32660000   4.10319000   5.30595000   5.12272000   4.74824000   4.46972000 
  5.39522000   4.14230000   3.62305000   3.98103000   4.87875000   4.42771000   5.63066000   5.67897000   4.46000000   5.29110000   4.23791000   5.40197000   5.06429000   4.76176000   4.45577000 
  5.45190000   4.11283000   3.53295000   4.05123000   4.88237000   4.37369000   5.69022000   5.65829000   4.41949000   5.36246000   4.15316000   5.29623000   5.12795000   4.70052000   4.38305000 
  5.37151000   3.99563000   3.56412000   4.06833000   4.94674000   4.34521000   5.65474000   5.62705000   4.18563000   5.37895000   4.28563000   5.34915000   5.11238000   4.68403000   4.36481000 
  5.46151000   4.23351000   3.59600000   4.04945000   4.93208000   4.52380000   5.66910000   5.79569000   4.62533000   5.46344000   4.16485000   5.42703000   5.15896000   4.77721000   4.53930000 
  5.43421000   4.05998000   3.52855000   4.02182000   4.82962000   4.34112000   5.66662000   5.65609000   4.35171000   5.38322000   4.14019000   5.27347000   5.10969000   4.69811000   4.36059000 
  5.34658000   4.09487000   3.57362000   3.95173000   4.86898000   4.40982000   5.50198000   5.66694000   4.38414000   5.25471000   4.13721000   5.38395000   5.02668000   4.68098000   4.44678000 
  4.98120000   4.17328000   3.63132000   3.54617000   4.92012000   4.42017000   5.18028000   5.73993000   4.41934000   4.96394000   4.21930000   5.33863000   4.66772000   4.78723000   4.43944000 
  5.45139000   4.32697000   3.56645000   4.05859000   4.94539000   4.52744000   5.61737000   5.77213000   4.64888000   5.46957000   4.13046000   5.37415000   5.16284000   4.77314000   4.54390000 
  5.43815000   4.09993000   3.62287000   4.00999000   4.81060000   4.43052000   5.56759000   5.66529000   4.39162000   5.34495000   4.16167000   5.34296000   5.07415000   4.72044000   4.43140000 
  5.34522000   3.99806000   3.45150000   3.96508000   4.71667000   4.29154000   5.55884000   5.55381000   4.37477000   5.34201000   3.97522000   5.24776000   5.10535000   4.56706000   4.36897000 
  5.34129000   3.95542000   3.67537000   3.83879000   4.71818000   4.52456000   5.50213000   5.50708000   4.53520000   5.23127000   4.05146000   5.48511000   4.96086000   4.57557000   4.53959000 
  5.16774000   4.04558000   3.73722000   3.81467000   4.83436000   4.52607000   5.41878000   5.65246000   4.49718000   5.17392000   4.17584000   5.47238000   4.88789000   4.66862000   4.53519000 
  5.46925000   4.20268000   3.62076000   4.04912000   4.93161000   4.53052000   5.66506000   5.77529000   4.61818000   5.45620000   4.17927000   5.41834000   5.15928000   4.78031000   4.53800000 
  5.02061000   4.15069000   3.61916000   3.56316000   4.92517000   4.42393000   5.17644000   5.75238000   4.42291000   4.94495000   4.21730000   5.34719000   4.66492000   4.78782000   4.43913000 
  5.42104000   4.11719000   3.55479000   3.95131000   4.79546000   4.39681000   5.50334000   5.74265000   4.36147000   5.37651000   4.20239000   5.36954000   5.08318000   4.71043000   4.44017000 
  5.39573000   3.99764000   3.51021000   4.01882000   4.76061000   4.33137000   5.58762000   5.56224000   4.34347000   5.36382000   4.05360000   5.33292000   5.10884000   4.55692000   4.39473000 
  5.21917000   3.84405000   3.53936000   3.81972000   4.59043000   4.30097000   5.36012000   5.47479000   4.30001000   5.13358000   3.98320000   5.32542000   4.93219000   4.46033000   4.36709000 
  5.22798000   3.93366000   3.63386000   3.85574000   4.67995000   4.54639000   5.46065000   5.52607000   4.52168000   5.22825000   4.04940000   5.49094000   4.97259000   4.57915000   4.54187000 
  5.45185000   4.17320000   3.42248000   4.10033000   4.89934000   4.34463000   5.67520000   5.66187000   4.42993000   5.44386000   4.09342000   5.22055000   5.16867000   4.69684000   4.36962000 
  5.38392000   4.02001000   3.54645000   4.04864000   4.94069000   4.35531000   5.64968000   5.62680000   4.18526000   5.35792000   4.27469000   5.34350000   5.11516000   4.68343000   4.36594000 
  5.39853000   4.15764000   3.56320000   4.01669000   4.77859000   4.39526000   5.41967000   5.74457000   4.37687000   5.40508000   4.26887000   5.37638000   5.08420000   4.70277000   4.43774000 
  5.41670000   4.20691000   3.48805000   3.93755000   4.88878000   4.29364000   5.55962000   5.71234000   4.45080000   5.21134000   4.18797000   5.26972000   5.04723000   4.74877000   4.36954000 
  5.38169000   3.95651000   3.50521000   4.01801000   4.73881000   4.33521000   5.57739000   5.53227000   4.38250000   5.38008000   4.06603000   5.34027000   5.10957000   4.56362000   4.39096000 
  5.35934000   4.07050000   3.61782000   3.94723000   4.83368000   4.42502000   5.54026000   5.63610000   4.42042000   5.27908000   4.14074000   5.35647000   5.02078000   4.68823000   4.44110000 
  5.43325000   4.31814000   3.62001000   4.09915000   4.93654000   4.51419000   5.61972000   5.73643000   4.63219000   5.46528000   4.16857000   5.38592000   5.16113000   4.77441000   4.54095000 
  4.87072000   4.22895000   3.54672000   3.57888000   4.95351000   4.49079000   5.15901000   5.75464000   4.37108000   4.99759000   4.23357000   5.34242000   4.67316000   4.77740000   4.44431000 
  5.36833000   4.20620000   3.60979000   4.03400000   5.08618000   4.32502000   5.61567000   5.79222000   4.37936000   5.22075000   4.37582000   5.40587000   5.07783000   4.84816000   4.43396000 
  5.43912000   4.23180000   3.69249000   3.97708000   4.80841000   4.58771000   5.46245000   5.76538000   4.47319000   5.45265000   4.24808000   5.44179000   5.08978000   4.75934000   4.54139000 
  5.43279000   4.19966000   3.66939000   3.98377000   4.81406000   4.57328000   5.49805000   5.77459000   4.49392000   5.44930000   4.24941000   5.46351000   5.08707000   4.76067000   4.54098000 
  5.37058000   3.98181000   3.46904000   4.01361000   4.70977000   4.30790000   5.56751000   5.55636000   4.35938000   5.34426000   3.97270000   5.24935000   5.09829000   4.56899000   4.36730000 
  5.44492000   3.97818000   3.51884000   4.02623000   4.74945000   4.35449000   5.60094000   5.51840000   4.33366000   5.35773000   4.00643000   5.31876000   5.10353000   4.56705000   4.39408000 
  5.09162000   4.00681000   3.69792000   3.83004000   4.89004000   4.56357000   5.43646000   5.64052000   4.37619000   5.19140000   4.21768000   5.46356000   4.89002000   4.66472000   4.54615000 
  5.30206000   4.18264000   3.48952000   3.93420000   4.96609000   4.37653000   5.49599000   5.73396000   4.40371000   5.21441000   4.19757000   5.25876000   4.98284000   4.75172000   4.39518000 
  5.39618000   4.02409000   3.55268000   4.05303000   4.88012000   4.34761000   5.64142000   5.65516000   4.26366000   5.36045000   4.18160000   5.30448000   5.11425000   4.69352000   4.36279000 
  5.44995000   4.17393000   3.41383000   4.10124000   4.90130000   4.33203000   5.65752000   5.63769000   4.41013000   5.44953000   4.09517000   5.24797000   5.16975000   4.69849000   4.37076000 
  5.38725000   3.98181000   3.50374000   4.01163000   4.74972000   4.33249000   5.58156000   5.53988000   4.36327000   5.37477000   4.05749000   5.35378000   5.10974000   4.56068000   4.39179000 
  5.32126000   4.13881000   3.53536000   3.88157000   4.90449000   4.37644000   5.54880000   5.70365000   4.37119000   5.22012000   4.20892000   5.32611000   4.98076000   4.76208000   4.38848000 
  5.41681000   4.15285000   3.46382000   4.06971000   4.93872000   4.34278000   5.65334000   5.64153000   4.43446000   5.34596000   4.11800000   5.31596000   5.13378000   4.69682000   4.38849000 
  5.41710000   4.14130000   3.54652000   3.99620000   4.75975000   4.40655000   5.42428000   5.77024000   4.38465000   5.41815000   4.28093000   5.37549000   5.08289000   4.70256000   4.43762000 
  5.43472000   4.17767000   3.43461000   4.08462000   4.89715000   4.31553000   5.66338000   5.65317000   4.39807000   5.45396000   4.09597000   5.26537000   5.17155000   4.69717000   4.36996000 
  5.37778000   4.20242000   3.58463000   4.00618000   5.07445000   4.31783000   5.61597000   5.84564000   4.39414000   5.31717000   4.34021000   5.39220000   5.07131000   4.84797000   4.43656000 
  5.44317000   4.08583000   3.61200000   3.97071000   4.83100000   4.42925000   5.59479000   5.65947000   4.40849000   5.34396000   4.15858000   5.35322000   5.07482000   4.72065000   4.43015000 
  5.43864000   4.12903000   3.50978000   4.02268000   4.90294000   4.36806000   5.70093000   5.68450000   4.43040000   5.34794000   4.15723000   5.28854000   5.13175000   4.69494000   4.38518000 
  5.39999000   4.14103000   3.59181000   4.00444000   4.99941000   4.34087000   5.58028000   5.75105000   4.46549000   5.26240000   4.17677000   5.37084000   5.06853000   4.75091000   4.46773000 
  5.42851000   4.13956000   3.47941000   4.03191000   4.92231000   4.35629000   5.68516000   5.67402000   4.43476000   5.34477000   4.14203000   5.30249000   5.13340000   4.69459000   4.38716000 
  5.30745000   4.19297000   3.51394000   3.91908000   4.94601000   4.38097000   5.51350000   5.70778000   4.39353000   5.21842000   4.20152000   5.29040000   4.98186000   4.75438000   4.39099000 
  5.32558000   4.11344000   3.58041000   3.94607000   4.86715000   4.39650000   5.50733000   5.66125000   4.40398000   5.26046000   4.17350000   5.37431000   5.02798000   4.67704000   4.44648000 
  5.37780000   4.16846000   3.46911000   4.06020000   4.98268000   4.29598000   5.66738000   5.68750000   4.46170000   5.34856000   4.08541000   5.25288000   5.13643000   4.69075000   4.39493000 
  5.33261000   4.02176000   3.44396000   3.97013000   4.71729000   4.29021000   5.56291000   5.55726000   4.39029000   5.34377000   3.97568000   5.25726000   5.10550000   4.56471000   4.36762000 
  5.46037000   4.22041000   3.63383000   4.00647000   4.77820000   4.59414000   5.43021000   5.81241000   4.45860000   5.47458000   4.25496000   5.42756000   5.08642000   4.75832000   4.54814000 
  5.20570000   3.93938000   3.63290000   3.84461000   4.69286000   4.53628000   5.45097000   5.54748000   4.51619000   5.24455000   4.05506000   5.48242000   4.97482000   4.57535000   4.54396000 
  5.37939000   4.14758000   3.56871000   3.97369000   4.93133000   4.37704000   5.62191000   5.73399000   4.47430000   5.27811000   4.24723000   5.40140000   5.06803000   4.75159000   4.46337000 
  5.40818000   4.11264000   3.68566000   4.00964000   4.90216000   4.52935000   5.64537000   5.73681000   4.53141000   5.34544000   4.22921000   5.48690000   5.08334000   4.76541000   4.53822000 
  5.37825000   4.21106000   3.57133000   3.98546000   5.08577000   4.30701000   5.61988000   5.83219000   4.37931000   5.29460000   4.35241000   5.40301000   5.07455000   4.84641000   4.43890000 
  5.26951000   4.20712000   3.49331000   3.88906000   4.99459000   4.36183000   5.47218000   5.74135000   4.42339000   5.23694000   4.13172000   5.30749000   4.98942000   4.75218000   4.39040000 
  5.38478000   4.17162000   3.51965000   3.99451000   4.82115000   4.43533000   5.47775000   5.74845000   4.41748000   5.45213000   4.22913000   5.32481000   5.10191000   4.71539000   4.41791000 
  5.20736000   3.97472000   3.66548000   3.90576000   4.74829000   4.53701000   5.41567000   5.56135000   4.47403000   5.30430000   4.04438000   5.44636000   4.96755000   4.56753000   4.54770000 
  5.11296000   3.98482000   3.67959000   3.79507000   4.88275000   4.50807000   5.38857000   5.61710000   4.45199000   5.21621000   4.18420000   5.49128000   4.89307000   4.67190000   4.54368000 
  5.35188000   4.07316000   3.60561000   3.93661000   4.84231000   4.41641000   5.53548000   5.65161000   4.41541000   5.27408000   4.14687000   5.35387000   5.02310000   4.68548000   4.44347000 
  5.32401000   4.17480000   3.53568000   3.86439000   4.92001000   4.38101000   5.54427000   5.69265000   4.36852000   5.22752000   4.18896000   5.34624000   4.98172000   4.76037000   4.38661000 
  5.41856000   4.15736000   3.69541000   3.99431000   4.84808000   4.55741000   5.56904000   5.73856000   4.52547000   5.39452000   4.25553000   5.44767000   5.08602000   4.76385000   4.53883000 
  5.50927000   3.95752000   3.57090000   4.11783000   4.72101000   4.40029000   5.70332000   5.52280000   4.42922000   5.49591000   3.98563000   5.30740000   5.18043000   4.56243000   4.43917000 
  5.10404000   3.98468000   3.67594000   3.82180000   4.90724000   4.58916000   5.43411000   5.62042000   4.36579000   5.19798000   4.21869000   5.48125000   4.88932000   4.66672000   4.54524000 
  5.25352000   3.81244000   3.52655000   3.83616000   4.59277000   4.32238000   5.37250000   5.45765000   4.32920000   5.15059000   3.93919000   5.31880000   4.92552000   4.46786000   4.36449000 
  5.36916000   4.27720000   3.54623000   4.07865000   4.96934000   4.47080000   5.63734000   5.69716000   4.52916000   5.32628000   4.11223000   5.32860000   5.12223000   4.75056000   4.46822000 
  5.44307000   4.27853000   3.60869000   4.07677000   4.93421000   4.51564000   5.64751000   5.77381000   4.63122000   5.46777000   4.16422000   5.41284000   5.15965000   4.77516000   4.53961000 
  5.42323000   3.96077000   3.51062000   4.02603000   4.70084000   4.32991000   5.60314000   5.53636000   4.34637000   5.37254000   3.99240000   5.26086000   5.08755000   4.57151000   4.36213000 
  5.33054000   4.09673000   3.57392000   3.92967000   4.87695000   4.39719000   5.51251000   5.67782000   4.42104000   5.27187000   4.17830000   5.38000000   5.02755000   4.67584000   4.44506000 
  5.35469000   4.20011000   3.47038000   3.93214000   4.90326000   4.25834000   5.54054000   5.74002000   4.37280000   5.26574000   4.19930000   5.27715000   5.04990000   4.74488000   4.37983000 
  5.37444000   4.16114000   3.52104000   3.99726000   4.89121000   4.30338000   5.53223000   5.70629000   4.35542000   5.30125000   4.17188000   5.26370000   5.04057000   4.75422000   4.37443000 
  5.08870000   4.02831000   3.72284000   3.82417000   4.88086000   4.54418000   5.42522000   5.63476000   4.39319000   5.19890000   4.19909000   5.48141000   4.89106000   4.66572000   4.54279000 
  5.35774000   4.07852000   3.57378000   3.93610000   4.86724000   4.41617000   5.51299000   5.67691000   4.38666000   5.25758000   4.13028000   5.37723000   5.02590000   4.68224000   4.44659000 
  5.37490000   4.20597000   3.61517000   4.02225000   5.05851000   4.33815000   5.59533000   5.81919000   4.41261000   5.33065000   4.33731000   5.36825000   5.07081000   4.85144000   4.43278000 
  5.41341000   4.09141000   3.57152000   4.02056000   4.85668000   4.39568000   5.60255000   5.66136000   4.40155000   5.39246000   4.17764000   5.31200000   5.09194000   4.73065000   4.41929000 
  5.41691000   4.17171000   3.46671000   4.07079000   4.88959000   4.30271000   5.67804000   5.69219000   4.39333000   5.45071000   4.10524000   5.25843000   5.17323000   4.69427000   4.36933000 
  5.35583000   4.05138000   3.42795000   4.05061000   4.71610000   4.32369000   5.57784000   5.54771000   4.41514000   5.34875000   3.97669000   5.25668000   5.09521000   4.56306000   4.36415000 
  4.92330000   4.16404000   3.52451000   3.59632000   4.91719000   4.43205000   5.19285000   5.74955000   4.40185000   4.99748000   4.23958000   5.33343000   4.66452000   4.78576000   4.44923000 
  5.20016000   4.05033000   3.72773000   3.79851000   4.82399000   4.52948000   5.41263000   5.62642000   4.51474000   5.17218000   4.16442000   5.49217000   4.88719000   4.67221000   4.53259000 
  5.30870000   3.98154000   3.71353000   3.87285000   4.69851000   4.54702000   5.51481000   5.54008000   4.52178000   5.21295000   4.05395000   5.46244000   4.96121000   4.57208000   4.53755000 
  5.36194000   4.18851000   3.50612000   3.97398000   4.89556000   4.28277000   5.53426000   5.71794000   4.36247000   5.27873000   4.19259000   5.25800000   5.04526000   4.74888000   4.37728000 
  5.43159000   3.98963000   3.51197000   4.04388000   4.75907000   4.34618000   5.59273000   5.54459000   4.32596000   5.35251000   4.02815000   5.30696000   5.10428000   4.56130000   4.39696000 
  5.34573000   4.20429000   3.44481000   3.92275000   4.90316000   4.24274000   5.53561000   5.74036000   4.39080000   5.25815000   4.18894000   5.31778000   5.05247000   4.74538000   4.37838000 
  5.38040000   4.20740000   3.63054000   4.00525000   5.04106000   4.36513000   5.57887000   5.78483000   4.42605000   5.33405000   4.33754000   5.34599000   5.07285000   4.85562000   4.42999000 
  5.38755000   4.27857000   3.50332000   4.03054000   5.01017000   4.48128000   5.66167000   5.71165000   4.54911000   5.33892000   4.08099000   5.30314000   5.12162000   4.74844000   4.47137000 
  5.43665000   4.07715000   3.59337000   3.94969000   4.85397000   4.41818000   5.62996000   5.68221000   4.42684000   5.34008000   4.17130000   5.35578000   5.07450000   4.71651000   4.43088000 
  5.38518000   3.92694000   3.54805000   4.03293000   4.71423000   4.35120000   5.60141000   5.56725000   4.39328000   5.38561000   4.05906000   5.29611000   5.10558000   4.56580000   4.38884000 
  5.36586000   4.05415000   3.59848000   3.92611000   4.82628000   4.42448000   5.56360000   5.65033000   4.43064000   5.28729000   4.14347000   5.36703000   5.01936000   4.68879000   4.44103000 
  5.42670000   3.99650000   3.53336000   4.09539000   4.72412000   4.40688000   5.64664000   5.54274000   4.44941000   5.51340000   3.98986000   5.34067000   5.19244000   4.55691000   4.43729000 
  5.34423000   4.21256000   3.44854000   3.96220000   4.89844000   4.24549000   5.52803000   5.72920000   4.41029000   5.24891000   4.18443000   5.33531000   5.05071000   4.74638000   4.37475000 
  5.37984000   3.93497000   3.52172000   4.03123000   4.72715000   4.33998000   5.58590000   5.55043000   4.39388000   5.38188000   4.07134000   5.30714000   5.10777000   4.56443000   4.39100000 
  5.45177000   3.97924000   3.54924000   4.06888000   4.73399000   4.39498000   5.67831000   5.57447000   4.44271000   5.51465000   3.98538000   5.32114000   5.18982000   4.55526000   4.43915000 
  5.39678000   4.03046000   3.52236000   4.02512000   4.91002000   4.35948000   5.64970000   5.63503000   4.20926000   5.34477000   4.23060000   5.34236000   5.11714000   4.68810000   4.36570000 
  5.49224000   4.13882000   3.67804000   4.04964000   4.92496000   4.52161000   5.71314000   5.76926000   4.52747000   5.43449000   4.21866000   5.47908000   5.15513000   4.78340000   4.53646000 
  5.35817000   4.07147000   3.58684000   3.92908000   4.85734000   4.41756000   5.52511000   5.67061000   4.39883000   5.26419000   4.13659000   5.36230000   5.02489000   4.68365000   4.44561000 
  5.45320000   4.13979000   3.63209000   4.04038000   4.90459000   4.46414000   5.63777000   5.70712000   4.47948000   5.38070000   4.19076000   5.37785000   5.11385000   4.76002000   4.46166000 
  5.41498000   4.11128000   3.61033000   3.96143000   4.89059000   4.43557000   5.63711000   5.71804000   4.44701000   5.29837000   4.23007000   5.38418000   5.06313000   4.76076000   4.45873000 
  5.13444000   3.97675000   3.66911000   3.80888000   4.86879000   4.50754000   5.39941000   5.63896000   4.47169000   5.20349000   4.19010000   5.46936000   4.89029000   4.67142000   4.54478000 
  5.39651000   4.16993000   3.46860000   4.09143000   4.95373000   4.32505000   5.63732000   5.63217000   4.44026000   5.34637000   4.10597000   5.30612000   5.13496000   4.69593000   4.38990000 
  5.41126000   4.19282000   3.59095000   3.96862000   4.99548000   4.42026000   5.62337000   5.83263000   4.43260000   5.33876000   4.31803000   5.35967000   5.06924000   4.85827000   4.42701000 
  5.37304000   4.17963000   3.62021000   4.01301000   4.99444000   4.34337000   5.54903000   5.70703000   4.45327000   5.27181000   4.19436000   5.38768000   5.07188000   4.75031000   4.46478000 
  5.46849000   4.09569000   3.54581000   4.07992000   4.86069000   4.38011000   5.67409000   5.61836000   4.40714000   5.37991000   4.14343000   5.32329000   5.12407000   4.70789000   4.38022000 
  5.37943000   4.17687000   3.60450000   4.01876000   5.08988000   4.33530000   5.64407000   5.82588000   4.38031000   5.19985000   4.37233000   5.41311000   5.07755000   4.84778000   4.43286000 
  5.38677000   4.17165000   3.52184000   4.00058000   4.83373000   4.41505000   5.48335000   5.70127000   4.40841000   5.45327000   4.22854000   5.31877000   5.10068000   4.71832000   4.42067000 
  5.40662000   4.14458000   3.54684000   3.99685000   4.83808000   4.38729000   5.59456000   5.74828000   4.37927000   5.44465000   4.18131000   5.32532000   5.09079000   4.72023000   4.42279000 
  5.46533000   4.07368000   3.49479000   4.08124000   4.84012000   4.34439000   5.67821000   5.64768000   4.36635000   5.43282000   4.11993000   5.27305000   5.16980000   4.70903000   4.36455000 
  5.40289000   4.16384000   3.72993000   3.97665000   4.86135000   4.54942000   5.58586000   5.70703000   4.53175000   5.38113000   4.24582000   5.45936000   5.08851000   4.76564000   4.53512000 
  5.40989000   4.18327000   3.55020000   4.00214000   4.94661000   4.48511000   5.63980000   5.73800000   4.51674000   5.33017000   4.14488000   5.35633000   5.12468000   4.75415000   4.46542000 
  5.46632000   4.18914000   3.71148000   4.10289000   4.92387000   4.53095000   5.65497000   5.71514000   4.58304000   5.44242000   4.21394000   5.40532000   5.15703000   4.78420000   4.53442000 
  5.43003000   4.10652000   3.60980000   4.01252000   4.79771000   4.42181000   5.55493000   5.70682000   4.37882000   5.34892000   4.17704000   5.33607000   5.07534000   4.71622000   4.43485000 
  5.48040000   4.06506000   3.55329000   4.00946000   4.84634000   4.36634000   5.69054000   5.66398000   4.37391000   5.39220000   4.17077000   5.30161000   5.12655000   4.70556000   4.38531000 
  5.09409000   4.01609000   3.71334000   3.80300000   4.88534000   4.52112000   5.40112000   5.62146000   4.42346000   5.21371000   4.18623000   5.49656000   4.89315000   4.66855000   4.54172000 
  5.38193000   4.16830000   3.58665000   3.99902000   4.97290000   4.35683000   5.57387000   5.71062000   4.45549000   5.27215000   4.20931000   5.40532000   5.07020000   4.75150000   4.46480000 
  5.40611000   4.08939000   3.57829000   4.01658000   4.86959000   4.39934000   5.63378000   5.70248000   4.40493000   5.37170000   4.17333000   5.33485000   5.09200000   4.72668000   4.41623000 
  5.48029000   4.07625000   3.54879000   4.05440000   4.85009000   4.37754000   5.67467000   5.61960000   4.39199000   5.39057000   4.14844000   5.32518000   5.12428000   4.70987000   4.38129000 
  5.30736000   4.10841000   3.54971000   3.91526000   4.89584000   4.36735000   5.53865000   5.71456000   4.37762000   5.21221000   4.23503000   5.29362000   4.98061000   4.76225000   4.39021000 
  5.41111000   4.13328000   3.56229000   3.98840000   4.84116000   4.39214000   5.60044000   5.71163000   4.38262000   5.42385000   4.18210000   5.31236000   5.09237000   4.72390000   4.42189000 
  5.39332000   3.97256000   3.49042000   4.05680000   4.70180000   4.31956000   5.58521000   5.55567000   4.35193000   5.35577000   3.98164000   5.25525000   5.09037000   4.56973000   4.36467000 
  5.43586000   4.11220000   3.46152000   4.10093000   4.85797000   4.32062000   5.67820000   5.68167000   4.38025000   5.42984000   4.12484000   5.24714000   5.17087000   4.70110000   4.37030000 
  5.52525000   3.96082000   3.58604000   4.12721000   4.70956000   4.40730000   5.70684000   5.47658000   4.42682000   5.48089000   3.98436000   5.32910000   5.17928000   4.56706000   4.43572000 
  5.23583000   3.82779000   3.50261000   3.85459000   4.58033000   4.28162000   5.36750000   5.45252000   4.28262000   5.15523000   4.02125000   5.34426000   4.92549000   4.46121000   4.37163000 