  -219.74434114
  -219.77182955
  -219.77998807
  -219.73728890
  -219.76490982
  -219.74817863
  -219.79031765
  -219.78751841
  -219.73268405
  -219.75527849
  -219.78613567
  -219.78267111
  -219.76493840
  -219.77505042
  -219.78706466
  -219.75745213
  -219.75577333
  -219.75598558
  -219.77062694
  -219.78431250
  -219.75998511
  -219.74333486
  -219.78416665
  -219.77833293
  -219.74218001
  -219.77280589
  -219.74882367
  -219.77746353
  -219.74648308
  -219.77205254
  -219.74770025
  -219.73697597
  -219.76739123
  -219.77189581
  -219.78900579
  -219.78193219
  -219.73112443
  -219.78416379
  -219.78296255
  -219.74413079
  -219.78018304
  -219.74680323
  -219.72838438
  -219.73753121
  -219.75450228
  -219.75980415
  -219.77452851
  -219.76089097
  -219.77467708
  -219.76160867
  -219.72253733
  -219.78421060
  -219.77927894
  -219.75271436
  -219.77665562
  -219.77401394
  -219.78560967
  -219.74966165
  -219.78152470
  -219.78107503
  -219.75462977
  -219.79533434
  -219.78358582
  -219.77724570
  -219.76254869
  -219.74191375
  -219.78850428
  -219.75332212
  -219.77223636
  -219.77743033
  -219.77793265
  -219.76632305
  -219.77264807
  -219.75748588
  -219.76113193
  -219.74209688
  -219.75786479
  -219.77180546
  -219.79037139
  -219.78263873
  -219.72913187
  -219.73429728
  -219.76596794
  -219.73596561
  -219.76326013
  -219.76049369
  -219.75529264
  -219.74481611
  -219.77852858
  -219.77411993
  -219.74762161
  -219.79724662
  -219.73585867
  -219.79110175
  -219.77717591
  -219.77814232
  -219.77863988
  -219.75295858
  -219.78688303
  -219.78114061
  -219.78189287
  -219.75362689
  -219.75388989
  -219.76447417
  -219.77817701
  -219.77610799
  -219.76417294
  -219.75557591
  -219.75904699
  -219.75630422
  -219.76961876
  -219.76685163
  -219.77657589
  -219.77748598
  -219.72162398
  -219.75005322
  -219.77823593
  -219.75068534
  -219.76930623
  -219.78572110
  -219.76992461
  -219.74517558
  -219.77517451
  -219.74197293
  -219.77835389
  -219.73421129
  -219.78850238
  -219.77892941
  -219.76184854
  -219.75189230
  -219.74940749
  -219.75743472
  -219.74285444
  -219.72854043
  -219.76934977
  -219.75086698
  -219.75647225
  -219.77004244
  -219.73480640
  -219.75393207
  -219.71364573
  -219.76781546
  -219.76308204
  -219.76969060
  -219.78792250
  -219.78399767
  -219.74409107
  -219.76412274
  -219.78717242
  -219.74225130
  -219.78133911
  -219.73197179
  -219.77101457
  -219.77343978
  -219.79339349
  -219.77115661
  -219.75279273
  -219.77163662
  -219.77368169
  -219.77660719
  -219.75063119
  -219.76615066
  -219.76086403
  -219.77167988
  -219.78107748
  -219.75108181
  -219.76776811
  -219.77205812
  -219.76931671
  -219.77614187
  -219.75338185
  -219.78335670
  -219.76037804
  -219.77640474
  -219.78277560
  -219.77472103
  -219.70447413
  -219.75745091
  -219.72359558
  -219.77788109
  -219.78670738
  -219.74865646
  -219.75392200
  -219.76665748
  -219.74944736
  -219.78279656
  -219.77174927
  -219.77293855
  -219.77862314
  -219.76314190
  -219.76399688
  -219.76458152
  -219.76602277
  -219.76074390
  -219.75461739
  -219.76760321
  -219.78634805
  -219.77409979
  -219.78590178
  -219.73665705
