  0.33709498   0.01474600   0.16337329  -0.96681168   0.01652031   0.23919180   0.78640334   1.12229402  -0.12995240  -0.10152149   0.02741327  -0.36984019  -0.05516490  -1.18097361   0.09722750 
  0.45601558  -0.17128635  -0.28796187   0.27118573   0.04766784   0.21400561  -0.19233616  -0.71823667  -0.10254864   0.11370051  -0.19206080   0.18913540  -0.64856566   1.03391598  -0.01263050 
 -0.25820170   0.02328821  -0.00302721   0.50947379  -0.10619754  -0.09211385   0.15669693   0.39869687   0.18574464  -0.13304182   0.50080585  -0.47143469  -0.27492719  -0.81659340   0.38083111 
 -0.36892025   0.51020064   0.10364290   1.14619646  -0.14989047  -0.04950052  -0.37849912  -0.62791385   0.02876155  -0.30373142   0.61684811  -0.32432281  -0.09504567  -0.34924443   0.24141888 
  0.23730076   0.12806830   0.45981566  -0.76320461   0.04495200   0.13050518   0.30855557   0.16068598  -0.10871721   0.30499666  -0.49776373   0.41544550  -0.08764863   0.16405746  -0.89704913 
 -0.33214022  -0.13766774  -0.40409540   0.92113695  -0.05296816  -0.20584161   0.06924344   0.71466748   0.11971635  -0.17474524   0.32500081  -0.13574687  -0.48349519  -0.84903239   0.62596779 
 -0.12768829  -0.05392255   0.02012345  -0.19582025  -0.04617584  -0.16811619   0.01152416  -0.21453422   0.24659886   0.14340231   0.27664751  -0.31051114   0.16858207   0.03798510   0.21190476 
  0.02710037  -0.00773463   0.21066833  -0.01776395  -0.02846279  -0.10978293   0.18917783  -0.07402825   0.11666498   0.18710604   0.27100884  -0.40848606  -0.38562028  -0.16078343   0.19093569 
  0.62537489  -0.72720774  -1.17304178  -0.74029924   0.00535893   0.29060084  -0.06840347  -0.80233899  -0.02084181   0.11780629  -0.24904783   0.51326204   0.06552178   1.77323563   0.39002046 
 -0.27814311   0.09959008  -0.21308875   1.24304396  -0.10256895  -0.07012610  -0.05247785   0.35357698   0.00772023  -0.20101258   0.20018134   0.06301291  -0.71141042  -0.55077946   0.21248146 
  0.19276271  -0.05426090   0.02757679  -0.14357637  -0.13343392   0.12182157   0.31603771   0.06812913   0.00262997   0.14924795  -0.32674761   0.40244604  -0.51447200   0.44631330  -0.55447438 
 -0.10827241  -0.05501886  -0.33938403   0.50356335   0.05492836  -0.11288187  -0.40621733  -0.36008648   0.05597428  -0.03801518   0.19058679   0.03729579   0.04894156   0.16958994   0.35899582 
 -0.15910784  -0.26105973  -0.66057241   0.66370735  -0.02220038  -0.23700868  -0.16316143   0.17057210   0.05062460   0.01200470   0.00963466   0.36423314  -0.35344277   0.10305334   0.48272334 
  0.24949546  -0.02377954   0.21888143  -0.30912069   0.03570454   0.04142163   0.08664693  -0.35109742   0.07230331   0.34431436  -0.29032136   0.38565448  -0.37133579   0.62949379  -0.71826084 
  0.13610246  -0.12185730  -0.52450621   0.14619863   0.11751755   0.11118469  -0.02678541   0.21836618  -0.04160469  -0.17170647   0.17348155   0.08328162  -0.08380947  -0.38750798   0.37164458 
  0.12776080   0.09999606   0.08654666   0.07942832  -0.17249168  -0.02868468  -0.17755905  -1.24387776  -0.17771769  -0.01219676   0.02155657  -0.32020391  -0.01743331   1.29481681   0.44005962 
 -0.45202961   0.55223572   0.62820953   0.41235787  -0.00267882  -0.19348955   0.29267417   0.88787392  -0.15789840  -0.18370885   0.18600998  -0.54050150  -0.06929332  -1.62344106   0.26368019 
  0.42218717  -0.50340266  -0.43386997  -0.24824976  -0.24141142   0.18937580   0.61701318   0.78001109   0.03495609  -0.01489950   0.01860496  -0.26847425  -0.77605109  -0.05380222   0.47801258 
 -0.31513449   0.59426053   0.38701665  -0.87969193   0.07163225  -0.24232699   0.10256329  -0.10673001  -0.01176173   0.10955076   0.22921209  -0.02180906   0.98271236  -0.78837512  -0.11111887 
  0.07007751  -0.00203399   0.14087107  -0.30558878  -0.15865636   0.21971858   0.39723623   0.64789357  -0.06527830  -0.18114573  -0.09849274  -0.02626759   0.01942077  -0.38871048  -0.26904401 
  0.26657730  -0.27602273  -0.36549092  -0.40106151  -0.16719034   0.19645480   0.64103955   0.97616635   0.06681607   0.07409459  -0.51114526   0.53137746  -0.58064967  -0.02180777  -0.42915741 
 -0.47189878   0.64343992   0.48069192   1.17576046  -0.11140992  -0.10424633  -0.41341279  -0.46116625  -0.08279029  -0.22159625   0.29264178  -0.24640089  -0.06885264  -0.36350578  -0.04725441 
  0.23932806  -0.27979556  -0.13645470  -0.12673904   0.30976475  -0.00934902  -0.23679939   0.10535113  -0.15738804   0.04801391  -0.21773421  -0.16587137   0.07619671   0.08241388   0.46906337 
  0.12040361   0.01270918   0.01950356  -0.60468992   0.39778002  -0.18246830  -0.15519926   0.02294111  -0.07167930   0.24505286   0.00253664  -0.18386183   0.39443246  -0.43596670   0.41850587 
 -0.10731365   0.71326598   0.76639714  -0.47784983   0.14101530   0.04455245   0.77018822   1.27485406  -0.06551844  -0.01527873   0.20076961  -0.12532777  -0.16974601  -2.32990495  -0.62010338 
  0.14924178  -0.24201486   0.05157385   0.71834157  -0.31957528   0.29821411   0.33581329   0.30873297   0.06949258  -0.03305708  -0.12216095  -0.00798685  -1.17033956   0.37501837  -0.41129370 
  0.45568725  -0.29205788  -0.02826148  -1.42950671   0.26533572   0.06265501   0.24531949   0.24796746  -0.03677231   0.05993094   0.00294210  -0.47305294   0.66856903  -0.22418740   0.47543172 
 -0.19254596   0.32942078   0.38574627  -0.04484684  -0.32512113  -0.04928455   0.10810863  -0.57855114   0.04922361   0.07050457   0.00952694   0.19524227   0.05877960   0.56472456  -0.58092735 
  0.37192817  -0.70335286  -0.55966927   0.10225836  -0.17609661   0.14869439   0.86957595   1.16648600   0.01803855   0.10507654  -0.25450961   0.23312504  -1.44883929  -0.03252692   0.15981104 
 -0.04193636   0.20632137  -0.27082681   0.52539092  -0.08969959  -0.04330341   0.38985076   0.72543677  -0.22118796  -0.06588200  -0.10928388   0.43052163  -0.80742307  -0.73277467   0.10479680 
  0.29729109  -0.37034181  -0.62585723   0.79093567  -0.46726901   0.13722782   0.40159295   0.00003959   0.04951723  -0.19734620   0.53144611  -0.68307464  -1.29247352   0.30612511   1.12218655 
  0.40621835  -0.74693241  -0.82265347  -0.52021479   0.44241757  -0.10641608   0.22499858   1.08919915  -0.11994390   0.01310616  -0.04110230  -0.40933555  -0.12410830  -0.74358201   1.45834874 
  0.22492993  -0.54369018  -0.76251530  -0.35667053  -0.06518497  -0.06401641   0.35735907   0.14697922   0.21378783   0.32698981  -0.34053151   0.47740195  -0.55260828   0.80242744   0.13534193 
  0.02292825  -0.15457526  -0.18186435  -0.11645338   0.36990704  -0.18080351  -0.01260891   0.68494614  -0.09793918   0.05185410  -0.01112230  -0.20868601   0.05427993  -0.88915536   0.66929305 
  0.00587649  -0.16512189  -0.39827444  -0.09056914   0.08165643  -0.19431616  -0.31958377  -0.33150799  -0.12725223   0.07956459  -0.17842911   0.20474169   0.32471182   0.59340256   0.51510114 
 -0.05495870  -0.29165319  -0.10494413  -0.73161305  -0.11180921  -0.04945296   0.11456876  -0.15965060   0.12674753   0.04443675  -0.06914497  -0.04401432   0.62756649   0.63225823   0.07166387 
 -0.16192088   0.60843395   0.81036569   0.71897226  -0.14819406   0.09969755  -0.52580333  -1.18173594  -0.27565275  -0.31145705   0.35767300  -0.57148397   0.28020899   0.36382306  -0.06292652 
 -0.09026575   0.19012091  -0.16657096   0.08107640   0.16279068  -0.07223440  -0.36217344  -0.29385173  -0.07092494  -0.10796182   0.22081695  -0.02534637   0.47932461  -0.27987680   0.33507667 
 -0.12023314  -0.04307767   0.12011719  -0.23159061  -0.17471413  -0.10055475   0.24677524  -0.07995283   0.27096616   0.11157035   0.32246211  -0.31932743  -0.00652184  -0.02471748   0.02879909 
  0.23268101  -0.49558396  -1.18740726   1.02405814  -0.07420309   0.02632390   0.12768006   0.40344003  -0.01648740  -0.20012529   0.31676996   0.06695311  -1.18429392  -0.15042268   1.11061740 
 -0.02565310   0.17968483   0.49014918   0.55970373  -0.33083179   0.16311747   0.12682466  -0.23246478  -0.03567009  -0.10068357  -0.03963574   0.00233533  -0.56019172   0.42324723  -0.61993163 
 -0.09141683  -0.17331469  -0.59474955  -0.91493058   0.18743205  -0.25782169   0.35810854   0.90195735   0.10250287   0.06996361   0.33591048   0.05748351   0.57827526  -1.25198520   0.69258486 
  0.30048079   0.22777176   0.25940112   1.37031033  -0.15933924   0.37802064   0.31775340   0.13773819   0.02288994   0.09881412  -0.04065158   0.27577359  -2.08735839  -0.16551938  -0.93608504 
 -0.59484957   0.47867824   0.68312863   1.11477254  -0.07176158  -0.19949846   0.07035236   0.70924967  -0.06272932  -0.17298044   0.13871186  -0.43157655  -0.41729489  -1.25487819   0.01067570 
  0.47102203  -0.84180633  -1.36120043  -0.31745233   0.06554492  -0.00072479  -0.32066800  -0.60069727  -0.12705554  -0.07371098  -0.00164807   0.06164766   0.24080927   1.37860648   1.42733336 
 -0.21032534   0.69835440   0.64691244   0.73200514  -0.14398852   0.02028671  -0.26343594  -0.64818950  -0.28579006  -0.20889581   0.15875972  -0.17175866  -0.04934805  -0.06493635  -0.20965043 
 -0.23556604   0.23041382  -0.27017735   0.49368418  -0.09231697  -0.13431117   0.03607143   0.07910488   0.01040959  -0.15178202   0.41087281  -0.03629641  -0.14240755  -0.62807429   0.43037533 
 -0.16607037   0.30927316   0.54587612   1.08637865  -0.13083223   0.08251312  -0.13202881  -0.64312830   0.20559041   0.03987486   0.17764415  -0.10300424  -0.82815433   0.28704322  -0.73097542 
  0.20021528  -0.34765730  -0.13733967   0.31628145  -0.28127831   0.17604750  -0.00903226  -0.52862896   0.13853008   0.00593563  -0.05201171  -0.10294227  -0.51340011   1.20957653  -0.07429565 
  0.46095568  -0.45151951  -0.56932631   0.60129762  -0.09026240   0.04761462   0.15522266  -0.33952878   0.06694514   0.28079674  -0.03825249   0.12353674  -1.49827270   0.91956318   0.33122954 
 -0.05568298   0.78472313   1.11262285   0.70885809   0.20574956  -0.05348906   0.40149474   0.90621740  -0.17808124   0.05936118   0.16765082  -0.60670951  -1.11403130  -2.06434092  -0.27434304 
 -0.09627440   0.33580120   0.58668608  -0.32841085  -0.12019869   0.11070955   0.21920539   0.09235528  -0.05500395   0.03133805  -0.34063846   0.43361620   0.17414181   0.03268042  -1.07600789 
 -0.12096513  -0.37059198  -0.03700783  -0.06565857  -0.23339629  -0.14340359   0.13173957  -0.03484965   0.23956820   0.23470498  -0.16020801   0.14124747  -0.17982084   0.79904568  -0.20040400 
  0.43649351  -0.39252984  -0.32072096  -1.00424322  -0.19766090   0.16510775   0.34933468  -0.02658204  -0.02024480   0.15366098  -0.29694039   0.21056857   0.06475406   0.91371291  -0.03471055 
 -0.05165973  -0.00261815   0.12558591   0.73600731   0.08430261  -0.13758881  -0.08227941   0.09657316  -0.04301596   0.32494913  -0.52112316   0.60005938  -0.92701756   0.34286555  -0.54504026 
  0.15430170   0.22086503   0.40010429   0.22689425  -0.16529673   0.20476792   0.48121694   0.57232086  -0.21464067  -0.16583486  -0.04989930  -0.35447121  -0.69657803  -0.57798987  -0.03576033 
 -0.04396521  -0.14522136  -0.49127275  -0.37952165   0.07271571  -0.16590376   0.18697106   0.44669819   0.02087986   0.01750556   0.13380004   0.12305723   0.21901024  -0.50799232   0.51323941 
  0.48876079  -0.53198372  -0.94016408  -0.80671345  -0.05825407   0.22277201   0.54177111   0.82341966  -0.01405489  -0.04495740  -0.32904565   0.26944227  -0.17886105   0.09586405   0.46200495 
  0.29283975  -0.59909933  -0.64901945   0.32921226  -0.09460601   0.10192978   0.15011724   0.04243824   0.12884194   0.03183196   0.06473194  -0.16278451  -0.80400146   0.58653490   0.58103225 
  0.22159522  -0.30484805  -0.15080372  -0.77254051   0.07664151  -0.06802063   0.32645836   0.15481874   0.05076139   0.18651263  -0.14479841   0.07330552   0.03797430   0.21818621   0.09475745 
  0.17664760  -0.76732890  -1.12595501   0.55609082  -0.16774929  -0.18414157   0.32688208   0.68631319   0.18978435   0.04659467   0.17834169   0.03615654  -1.10621517   0.07042332   1.08415594 
 -0.09286641  -0.08499757  -0.11556841   0.28841901  -0.06211586  -0.10462377   0.01526356   0.04358340   0.06056060  -0.16354324   0.30201933  -0.44646011  -0.04727292  -0.19848931   0.60609168 
  0.15258549   0.28814442   0.20998981  -0.11957314   0.02012010   0.17046206   0.22188344  -0.07756737   0.07599463   0.09027989   0.15679540   0.16226232  -0.34517542  -0.38749230  -0.61870882 
 -0.31538851   0.07760799   0.26789704  -0.11285693  -0.15879700  -0.07279001   0.43805340   0.62514864   0.25552262  -0.04718371   0.39214367  -0.34133523   0.03737549  -0.93610304  -0.10929442 
  0.08584089  -0.14476576  -0.04070429  -0.45035171   0.03003116   0.07968055  -0.36955763  -0.88254456   0.23223441   0.35554927  -0.44551009   0.90956574   0.37851918   1.44278924  -1.18077641 
 -0.28645521   0.34083489   0.46393044  -0.93254490  -0.03447736  -0.16144831   0.04018699  -0.39472530   0.05209913   0.43290632  -0.77627760   1.32525601   0.74590680   0.86464536  -1.67983726 
  0.00984858  -0.06027572  -0.31961308  -0.64511627   0.05775348  -0.10464382   0.03841344  -0.22831504   0.11829865   0.09209585   0.24924941   0.00531754   0.50475866  -0.01841213   0.30064097 
 -0.11496806   0.32927062   0.82350887  -0.33805888  -0.16007663   0.17513913   0.78502575   1.13559713   0.04712431  -0.16190391   0.03402150  -0.19507695  -0.17009490  -1.33881262  -0.85069537 
  0.18320646  -0.11065582   0.16556926   0.47781924  -0.24771061   0.20888141   0.30988714   0.22572363  -0.04612776  -0.20005947   0.15318275  -0.70654590  -0.77085362  -0.02053996   0.37822273 
 -0.30276649   0.22490833   0.25475926   0.46344244   0.14745127  -0.21597018  -0.29284155  -0.00464340   0.04666100  -0.00416080   0.29026968  -0.40570645   0.13632640  -0.65798615   0.32025636 
 -0.01781975   0.09888714   0.49152574  -0.23005670  -0.14032445   0.02668231   0.47522089   0.45249087  -0.00578265  -0.07178240   0.15109965  -0.59128834  -0.15556230  -0.56215295   0.07886294 
  0.12140376   0.12093480   0.38473480  -0.34450513  -0.19094880   0.12785027   0.02792775  -0.74347403  -0.07395472   0.16141412  -0.35795556   0.26181769   0.03375925   1.17144359  -0.70044804 
  0.14896127  -0.02654270   0.23767151   0.21903338  -0.20855900   0.30235126   0.46959430   0.58903838   0.04497102  -0.28716046   0.27876995  -0.53598512  -0.55042850  -0.63270663  -0.04900841 
  0.00880986   0.33897034   0.37092982  -0.09484641  -0.17362682   0.27358893  -0.37780004  -1.09321494  -0.00722143  -0.30428909   0.23163560  -0.36328570   0.76812569   0.69623581  -0.27401162 
 -0.30633517   0.15423253  -0.18249581   0.49688056   0.06085550  -0.25223573   0.19360654   0.71868327   0.03671524  -0.08020222   0.41900184  -0.21789053  -0.30394971  -1.35277289   0.61590684 
  0.02840443  -0.13059080  -0.21617433   0.94140258  -0.12596206  -0.14067181  -0.68857421  -1.07187279  -0.16275983   0.22169472  -0.51113549   0.60573378  -0.50292752   1.83956114  -0.08612783 
 -0.13478297   0.46591635   0.42754970  -0.02074642  -0.34848519   0.16517306  -0.00891553  -0.88076407   0.11380464  -0.04118509   0.08868581   0.30621253   0.20563001   0.67464736  -1.01273992 
 -0.05135351   0.08602961   0.31885486   0.80490212  -0.20622779  -0.05041866  -0.36816898  -0.73031002  -0.12059001   0.09797749  -0.24917433   0.05071639  -0.48335712   1.09968279  -0.19856232 
 -0.12632510  -0.15314933  -0.13364912  -0.53484355   0.03581895  -0.19199909   0.08644176   0.16196870   0.08777924   0.20139233  -0.24822431   0.38122140   0.37333456   0.20358599  -0.14335217 
  0.22899483  -0.50168183  -0.44362110   0.00823676  -0.15777936   0.02006714   0.18956992  -0.00576619   0.11637702   0.19915985  -0.25720566   0.32606447  -0.62596136   0.92243304  -0.01888752 
  0.34986509  -0.05507980  -0.11654619   0.46238598  -0.45360698   0.41282941  -0.12241677  -1.03265177  -0.10957056  -0.01735746  -0.40495466   0.64919532  -0.67247684   1.94629320  -0.83590772 
  0.45173368  -0.00857743   0.05676309   1.25211195  -0.12762453   0.41978782   0.20050324  -0.05115733  -0.01680930   0.04107273   0.00505632  -0.00753228  -1.94542186   0.18230298  -0.45220959 
 -0.48246598   0.29852933   0.64230632  -0.51524230  -0.17610869  -0.13611403   0.02084541  -0.47726542   0.29946341   0.22949543   0.04643578   0.32764055   0.74736718   0.30840876  -1.13329600 
  0.09784199   0.67827363   0.96379424   1.06653854   0.07220663   0.09302556   0.19605216   0.31530264  -0.18568140   0.03317124   0.04138769  -0.37319393  -1.39360394  -1.10717059  -0.49794423 
 -0.06398864   0.37533616   0.77330259   0.48079425   0.03733230   0.10208250  -0.51188753  -0.75852470  -0.14489997   0.08025236  -0.35338647   0.17409039   0.01482930   0.69924297  -0.90457550 
 -0.25298623   0.56321764   0.49853403  -0.38770287   0.22712822  -0.15532371  -0.53312863  -0.65064387  -0.12876275  -0.11658039   0.31741119  -0.55072109   1.29039813  -0.45711292   0.33627377 
 -0.04626171   0.29398260   0.59710339   0.68115686  -0.31765673   0.34338825  -0.29630224  -0.85223340   0.08496389  -0.19640826   0.12189690  -0.34153912  -0.14218490   0.75401063  -0.68391667 
  0.09565245  -0.08695932  -0.25217480   0.74383192  -0.51547524   0.07183742   0.29158068  -0.29583328   0.05448742  -0.26580803   0.73248157  -0.87983231  -0.86525703   0.16578601   1.00568201 
  0.22124581  -0.07026854  -0.14477810   0.39558122  -0.28383680   0.08904422   0.23655411  -0.12975982  -0.19881892   0.03515715  -0.27629938   0.15454261  -0.88853804   0.76016455   0.10001020 
  0.19720941  -0.07801808  -0.18368597  -0.75465341  -0.17162830   0.26573424   0.38519760   0.00291896   0.01434902  -0.10303715   0.05536827   0.09749258   0.27528380   0.19135914  -0.19388962 
  0.04396187   0.63302724   0.64064026   0.58298911  -0.28927390   0.33082871   0.59554094   0.64984786  -0.24977365  -0.39445585   0.21398992  -0.43680873  -0.82803606  -1.20759087  -0.28488658 
 -0.04680678  -0.06240253  -0.30977658   0.07249485  -0.02729603  -0.10843336   0.03822498   0.03977355   0.04555518   0.10073396  -0.02774829   0.35256037  -0.16464675   0.07767329   0.02009439 
 -0.18322343  -0.27800607  -0.22783321   1.03069105  -0.01053146  -0.20968977  -0.11308010   0.33668849   0.15916132  -0.17928837   0.66253853  -1.08197308  -0.55509915  -0.71068948   1.36033474 
 -0.03585366   0.00935364  -0.24055525   0.00204865   0.11812587  -0.15013961  -0.01626372   0.28398464  -0.13922865   0.10890876  -0.19679290   0.36529012  -0.05883977  -0.21467101   0.16463338 
 -0.20192480   0.33978383   0.05482886  -0.66207805  -0.00301409   0.09288749   0.04299025   0.07018318  -0.01025713  -0.17981107   0.03275215   0.41406791   1.00082367  -0.43970507  -0.55152713 
 -0.24058327   0.42860025   0.74679408  -0.08322506  -0.12727383  -0.05892770  -0.12740958  -0.43477551   0.18713741   0.20458151  -0.19462135   0.30644264   0.24663640   0.32807044  -1.18144643 
 -0.09225655   0.48474422   0.31257933  -0.04269792  -0.05387241  -0.11297134   0.34405493   0.12100190  -0.01753461   0.06555521   0.39783170  -0.39269311  -0.27465568  -0.94970541   0.21061947 
  0.32828435  -0.61042629  -0.82506130  -1.13492478   0.16490103  -0.04361683   0.46493111   0.39693902   0.19009725   0.26503696  -0.07094088   0.05427633   0.07667237   0.11952712   0.62430429 
  0.20552305   0.00204453  -0.06171476  -0.08316695  -0.09457593   0.19297045  -0.15230524  -0.52916169  -0.19402743  -0.26050000   0.15234226  -0.35542200   0.29044889   0.46935082   0.41819400 
 -0.11783097   0.19105730  -0.09401569  -0.85993358   0.13283768  -0.03280743   0.00056924   0.03151211   0.05043023  -0.13174651   0.34419943  -0.06931415   1.10894207  -0.69960652   0.14570704 
  0.09581160  -0.16177638  -0.08053544   0.52987491  -0.29537562   0.04577680  -0.03238423  -0.50345305  -0.00214918   0.07729123  -0.20819159   0.16272820  -0.67059326   1.16879639  -0.12582065 
  0.17380576  -0.03776939   0.29919113   1.01393162  -0.11047430   0.36146613  -0.14102533  -0.39645076   0.12171050   0.17041603  -0.39360713   0.58279036  -1.21712809   0.93830158  -1.36515811 
  0.05302446  -0.01490078  -0.27418723  -1.49490508   0.15822287   0.00638917   0.45219185   0.68644303   0.12324004  -0.04058088   0.19330598   0.20667850   1.03026965  -1.02307110  -0.06212048 
  0.39670402  -0.88992926  -1.03832875  -0.30276932   0.01284956   0.18493912  -0.17567032  -0.55967776   0.15144881  -0.00025582   0.00164396   0.07119928   0.08199145   1.43511298   0.63074128 
 -0.28652308   0.23324434   0.35019831   0.22617820  -0.22568378  -0.13437134   0.03334659  -0.43928212   0.26546144   0.10178965   0.35560686  -0.24123016  -0.07479135   0.07611470  -0.24005826 
  0.21455068  -0.03715695  -0.38544854  -0.82655331  -0.03395414   0.16622386   0.10766769  -0.21114655  -0.14643440  -0.27853932   0.09286075   0.03230709   0.78287452   0.18939663   0.33335198 
 -0.16633133   0.39390230   0.09154847  -0.51610361   0.11064296   0.00996839   0.49877597   1.07085798  -0.11438493  -0.10490068   0.02838103   0.30079883   0.28855913  -1.60378427  -0.28793050 
  0.49220811  -0.44650407  -0.67000627   0.63872813  -0.20047136   0.40448492  -0.17122747  -0.65701556  -0.02244206  -0.20354331   0.13043833  -0.18640105  -0.75616572   1.17355292   0.47436446 
  0.30742789  -0.05088788   0.19479747  -1.50462382   0.22738944   0.13807294   0.11207300  -0.10516447  -0.04680833   0.06557783  -0.05577116  -0.18387160   1.01954510  -0.01556618  -0.10219074 
 -0.12730983   0.73298036   1.02611090  -0.63125242   0.19703715   0.21544542  -0.14908649  -0.09560103  -0.05740792  -0.08937023  -0.08243702   0.15514501   0.99701870  -0.75197947  -1.33929341 
  0.23918305  -0.56044240  -0.92642286   0.13836708   0.01152313  -0.09347396   0.01905901   0.23815487  -0.14921221  -0.24864211   0.27870953  -0.58062756  -0.14796729   0.03205461   1.74973659 
  0.03455012  -0.49186564  -0.71835340   0.05564544   0.19011936  -0.30369928  -0.51967049  -0.37061794   0.03053047   0.19350344  -0.13400881   0.24342150   0.23597124   0.80637330   0.74810071 
  0.24503435  -0.26906638  -0.36565445  -0.40487136   0.06149288   0.14002826   0.21218681   0.27817371   0.13953153   0.20398554  -0.38360609   0.85192616  -0.25633534   0.31300588  -0.76583150 
 -0.18182578  -0.04567833   0.20971651  -0.61527100  -0.14529721  -0.03067908   0.16728701  -0.13238877   0.30407312   0.16388905  -0.06069147   0.32064254   0.46592072   0.38405603  -0.80375309 
  0.18326765   0.12325264   0.76345144   1.29462192  -0.12327089   0.46907031  -0.08287153  -0.32055384   0.05771234  -0.05405624   0.15543169  -0.58486189  -1.34096180   0.16514066  -0.70537220 
  0.24093988  -0.20517441  -0.76038232  -0.35822167  -0.07300958   0.08488187   0.75248597   1.13623861  -0.22755939  -0.14724841  -0.14159072   0.50665561  -0.48795578  -0.71646416   0.39640423 
 -0.15316681   0.07951831   0.37309494   0.65356232  -0.34331549  -0.07173149   0.03619408  -0.38691226   0.14173701   0.15605184  -0.05991011   0.15409575  -0.69264194   0.71061955  -0.59719621 
 -0.39794663   0.43106850   0.21931158   1.16209072  -0.02758142  -0.18506228  -0.47061271  -0.40606383  -0.06320291  -0.10194932   0.20167181  -0.09966824  -0.19158232  -0.19909531   0.12862186 
  0.24483149   0.20203047  -0.21439924  -0.44918444   0.04921719   0.10933556  -0.16838075  -0.65860398  -0.30216537   0.04860475  -0.33404438   0.64767631   0.32412895   0.74140095  -0.24044726 
 -0.28354550   0.35237783   0.17843759   0.25949650   0.06615325  -0.14437907  -0.27949268  -0.20194537  -0.04979388  -0.09585839   0.22038526  -0.16371910   0.39939981  -0.43697096   0.17945446 
  0.35720737  -0.03276475  -0.16844735   0.31002546  -0.21489135   0.34410558   0.37662068   0.22368655  -0.14303747  -0.33257705   0.25532542  -0.45591068  -0.71127646  -0.23135587   0.42328991 
  0.31641618  -0.01745671   0.56916716   0.18225875   0.03802881   0.33947838   0.12629861   0.03565877   0.00575257  -0.10354725   0.35541377  -1.06863296  -0.52142604  -0.41164465   0.15423485 
  0.18130051   0.37180990   0.26740854  -0.27292353  -0.04135246   0.17120664   0.17478792  -0.06391177  -0.31230705   0.03897703  -0.43986113   0.55932783  -0.12214218   0.17331546  -0.68563570 
  0.20748120   0.10038172  -0.19737525   1.06971333  -0.33323062   0.35251769  -0.26518017  -0.97885880  -0.10962223  -0.29465417   0.14682906   0.02387596  -0.71736019   1.06487890  -0.06939617 
 -0.23534544  -0.02582151   0.34577011   0.48329001  -0.19583619  -0.19117891   0.06476691  -0.01038825   0.28611299   0.21522688   0.10427719  -0.27415277  -0.52793862   0.12776902  -0.16655142 
 -0.35179342   0.62207438   0.51146973   0.63771255   0.02194172  -0.09196910  -0.64512450  -0.91772819  -0.05177208  -0.28544271   0.60363706  -0.77376641   0.64464808  -0.32992471   0.40603786 
 -0.24024980   0.20430229   0.15053247   0.38500785  -0.17329720  -0.13057177  -0.04053254  -0.37614991   0.17344864   0.12567692   0.14731037   0.13553527  -0.22990243   0.19783445  -0.32894461 
 -0.11111038   0.07148724  -0.35919766  -0.37977027   0.07403699  -0.19980622   0.16585671   0.38976052  -0.08106585  -0.10370049   0.30363629  -0.19145273   0.42872443  -0.83892104   0.83152272 
 -0.39467234   0.55327162   0.52066679   0.50306765   0.18783392  -0.21645175  -0.55966825  -0.43446595  -0.05462111   0.11463510  -0.05640545   0.19248528   0.33663784  -0.25023439  -0.44207922 
 -0.09122656   0.96295375   0.96140775   0.06875956  -0.15762844   0.24890051   0.17005788  -0.08260285  -0.24031151  -0.15665888  -0.14903249   0.24490066   0.00906799  -0.57368997  -1.21489741 
  0.22106918  -0.16426083   0.06826951  -0.80745933  -0.10483408   0.13837248   0.86104095   0.90501593   0.03639719  -0.11810916   0.14294903  -0.50986819  -0.15654138  -0.77887004   0.26682901 
 -0.33993887   0.67171580   0.37382976   0.47926214   0.05836231  -0.17058701  -0.49705823  -0.63288532  -0.18888395  -0.13560624   0.24480013  -0.22048682   0.49334094  -0.34199292   0.20612829 
  0.43757440  -0.63412536  -0.90518690  -0.28524731  -0.31449814   0.21254754   0.80679778   0.70151144   0.13638065  -0.09524956   0.14240087   0.00298453  -0.86387532   0.10471119   0.55327419 
 -0.13623847  -0.03816611  -0.24296899  -1.38412765   0.28964259  -0.23359504   0.42600370   1.05444925  -0.06941365  -0.18654528   0.39305512  -0.67547088   1.28090796  -1.69898060   1.22144882 
 -0.02775266   0.22670656   0.37771185  -0.25951193   0.01647661  -0.15979972  -0.34892690  -0.98788078   0.09439133   0.26604123  -0.02719859  -0.07536831   0.37015026   0.77189620  -0.23693540 
  0.18441102  -0.08817056  -0.07804739   0.21642809  -0.28949116   0.18658411   0.77386180   1.37066103  -0.17649667  -0.00782590  -0.36579946   0.31667483  -1.16687501  -0.62719986  -0.24871487 
  0.03716055  -0.00102715  -0.11478756   0.19035719  -0.02990672   0.22140650  -0.64275832  -1.20197740   0.08250772  -0.34039935   0.27362493  -0.23066116   0.75563994   0.95928634   0.04153424 
 -0.10510019   0.52979032   0.33579992   0.02422511   0.10904657  -0.01074923   0.44784001   0.80160263  -0.06511298  -0.10358685   0.40219536  -0.30519206  -0.26337809  -1.84263462   0.04525410 
  0.37179756  -0.76345015  -1.31515263   0.65065364   0.11792893  -0.13769165   0.30672392   1.04179484  -0.15477606  -0.04429560   0.01098115   0.01781589  -1.28487979  -0.40725476   1.58980420 
 -0.18701348   0.42408695   0.47610329   1.12643837  -0.19046286  -0.25978241  -0.10431832  -0.54096996  -0.03733256   0.23501608   0.10463380  -0.05251359  -1.07012265   0.20271207  -0.12647499 
  0.30817813  -0.38342020  -1.19895225  -1.11533664   0.13405329  -0.05230224   0.66702869   1.21570987  -0.17125961   0.01387080  -0.25128314   0.68574318   0.12625876  -0.71505983   0.73677093 
 -0.02403305  -0.11964333  -0.45684759  -1.02918028   0.18470232  -0.19252745  -0.12083298  -0.20048345   0.16538800   0.23661479   0.06693794   0.47974936   0.93743152   0.06848677   0.00423794 
 -0.31765802   0.31927626   0.07974997   0.97960211   0.01300666  -0.14956008  -0.46799920  -0.33088296  -0.06871200  -0.03765420   0.00392606   0.22505952  -0.15629069  -0.00532602  -0.08653740 
  0.34475581  -0.44292048  -0.58376352   0.38722516  -0.20511090   0.30493675   0.32220885   0.20394183  -0.07994871  -0.34444188   0.29321950  -0.53137720  -0.70974769   0.15086980   0.89015294 
  0.07465869  -0.03344120   0.17189004  -0.02608144  -0.19256756   0.15622153   0.40926767   0.31585182   0.07988084  -0.07108949   0.13197405  -0.29609347  -0.38675542  -0.22181711  -0.11189868 
 -0.05206545   0.22928691  -0.11575095  -0.31331184   0.12522878  -0.04796609  -0.35717935  -0.55267641  -0.08515595  -0.13749085   0.27850950  -0.15213709   0.86004748  -0.08034878   0.40100983 
 -0.31065024   0.23105094   0.05202842  -0.47032989   0.17524609  -0.22199066   0.38559663   1.09160286  -0.07204851  -0.24037707   0.45421324  -0.67197573   0.63576057  -1.95211288   0.91398622 
 -0.19857569   0.44938395   0.25604944  -0.69578716   0.31385305  -0.20725005  -0.27871030  -0.18760920  -0.09375935   0.28761554  -0.38001864   0.83684489   0.88545761  -0.19560942  -0.79188492 
  0.00916081  -0.04849214  -0.28080625   0.49724694  -0.01380395   0.14050571  -0.31538954  -0.37305431   0.03978332  -0.16354221   0.05935707   0.20660240  -0.02747575   0.37599308  -0.10608518 
  0.07459544   0.20700092   0.00705843  -2.00656687   0.27072011   0.00999487   0.01737392  -0.31160746   0.07282961   0.01312467   0.26761628   0.03352734   1.90147285  -0.43372984  -0.12341050 
  0.10824053   0.39288903   0.42275589  -0.50168620   0.11342848   0.16748884  -0.02711065  -0.31395564  -0.06300854   0.10259338  -0.19966147   0.44517841   0.31796320   0.00729960  -0.97241435 
 -0.22258047   0.11637573  -0.13581398  -1.10762490   0.14706303  -0.03385926   0.68415270   1.47693338   0.02516768  -0.26927412   0.30288090  -0.09283401   0.91532679  -2.04325305   0.23733932 
  0.07339011   0.28031620   0.73120939  -0.60814650   0.05534591   0.08178859   0.25316904   0.15445776   0.00908856   0.16857204  -0.16534969  -0.04814761   0.11301505  -0.32477018  -0.77393919 