-2.194252465003359021e+00 -1.277087665105807179e+00 3.100781733351733530e-02 -1.277087665105807179e+00 -3.737359490530229866e+00 4.035135649379822942e-02 3.100781733351733530e-02 4.035135649379822942e-02 -2.781659613294284572e+00
