-3.274830000000000241e-01 2.509837000000000096e+00 -3.214299999999999796e-02 -1.039914999999999923e+00 -2.320469999999999811e+00 1.755900000000000169e-02 -7.848690000000000389e-01 -2.415262999999999938e+00 4.003500000000000114e-02 1.037379000000000051e+00 -1.009929999999999994e-01 -1.023300000000000078e-02 5.621829999999999883e-01 1.164184000000000108e+00 -1.671939000000000064e+00 5.527050000000000018e-01 1.162703999999999960e+00 1.656722000000000028e+00
