-1.862547462549700050e+00 -1.314798863239686311e+00 2.642030812656579949e-02 -1.314798863239686311e+00 -3.768573277664875931e+00 4.149355266369228468e-02 2.642030812656579949e-02 4.149355266369228468e-02 -2.681052727706731087e+00
