
     Program PWSCF v.5.4.0 starts on 22Sep2019 at 18:44:57 

     This program is part of the open-source Quantum ESPRESSO suite
     for quantum simulation of materials; please cite
         "P. Giannozzi et al., J. Phys.:Condens. Matter 21 395502 (2009);
          URL http://www.quantum-espresso.org", 
     in publications or presentations arising from this work. More details at
     http://www.quantum-espresso.org/quote

           HOST :    @host@
           ARCH :    
             CC :    cc
            CPP :    cpp
            F90 :    mpif90
            F77 :    gfortran
         DFLAGS :    -D__GFORTRAN -D__STD_F95 -D__FFTW3 -D__MPI -D__PARA
      BLAS LIBS :    -lopenblas
    LAPACK LIBS :    -lopenblas
       FFT LIBS :    -lfftw3
      MASS LIBS :    

     Parallel version (MPI), running on    28 processors
     R & G space division:  proc/nbgrp/npool/nimage =      28
     Waiting for input...
     Reading input from standard input
Warning: card &IONS ignored
Warning: card / ignored
Warning: card &CELL ignored
Warning: card / ignored

     Current dimensions of program PWSCF are:
     Max number of different atomic species (ntypx) = 10
     Max number of k-points (npk) =  40000
     Max angular momentum in pseudopotentials (lmaxx) =  3

     IMPORTANT: XC functional enforced from input :
     Exchange-correlation      = PBE ( 1  4  3  4 0 0)
     Any further DFT definition will be discarded
     Please, verify this is what you really want


     gamma-point specific algorithms are used

     Subspace diagonalization in iterative solution of the eigenvalue problem:
     a serial algorithm will be used


     Parallelization info
     --------------------
     sticks:   dense  smooth     PW     G-vecs:    dense   smooth      PW
     Min         445     445    110                37558    37558    4694
     Max         448     448    112                37564    37564    4708
     Sum       12517   12517   3125              1051747  1051747  131683
     Tot        6259    6259   1563



     bravais-lattice index     =            1
     lattice parameter (alat)  =      18.8973  a.u.
     unit-cell volume          =    6748.3346 (a.u.)^3
     number of atoms/cell      =            5
     number of atomic types    =            2
     number of electrons       =         8.00
     number of Kohn-Sham states=            4
     kinetic-energy cutoff     =     110.0000  Ry
     charge density cutoff     =     440.0000  Ry
     convergence threshold     =      1.0E-06
     mixing beta               =       0.5000
     number of iterations used =            8  plain     mixing
     Exchange-correlation      = PBE ( 1  4  3  4 0 0)

     celldm(1)=  18.897261  celldm(2)=   0.000000  celldm(3)=   0.000000
     celldm(4)=   0.000000  celldm(5)=   0.000000  celldm(6)=   0.000000

     crystal axes: (cart. coord. in units of alat)
               a(1) = (   1.000000   0.000000   0.000000 )  
               a(2) = (   0.000000   1.000000   0.000000 )  
               a(3) = (   0.000000   0.000000   1.000000 )  

     reciprocal axes: (cart. coord. in units 2 pi/alat)
               b(1) = (  1.000000  0.000000  0.000000 )  
               b(2) = (  0.000000  1.000000  0.000000 )  
               b(3) = (  0.000000  0.000000  1.000000 )  


     PseudoPot. # 1 for  H read from file:
     ../pseudo/H.tm.pbe.UPF
     MD5 check sum: 4b614d66af87240b7a5107bfa527a767
     Pseudo is Norm-conserving, Zval =  1.0
     Generated using "atomic" code by A. Dal Corso  v.5.2.0
     Using radial grid of  929 points,  0 beta functions with: 

     PseudoPot. # 2 for  C read from file:
     ../pseudo/C.tm.pbe.UPF
     MD5 check sum: a4f27fcb9b24331b00ace8e732a7e062
     Pseudo is Norm-conserving, Zval =  4.0
     Generated using "atomic" code by A. Dal Corso  v.5.2.0
     Using radial grid of 1073 points,  1 beta functions with: 
                l(1) =   1

     atomic species   valence    mass     pseudopotential
        H              1.00     1.00000      H( 1.00)
        C              4.00     1.00000      C( 1.00)

     No symmetry found



   Cartesian axes

     site n.     atom                  positions (alat units)
         1           H   tau(   1) = (   0.5112960   0.3984820   0.3679590  )
         2           H   tau(   2) = (   0.3795070   0.4882750   0.4508070  )
         3           H   tau(   3) = (   0.5388570   0.5617100   0.4451990  )
         4           H   tau(   4) = (   0.5216210   0.4184200   0.5491280  )
         5           C   tau(   5) = (   0.4893070   0.4671900   0.4543680  )

     number of k points=     1
                       cart. coord. in units 2pi/alat
        k(    1) = (   0.0000000   0.0000000   0.0000000), wk =   2.0000000

     Dense  grid:   525874 G-vectors     FFT dimensions: ( 128, 128, 128)

     Largest allocated arrays     est. size (Mb)     dimensions
        Kohn-Sham Wavefunctions         0.14 Mb     (    2354,    4)
        NL pseudopotentials             0.11 Mb     (    2354,    3)
        Each V/rho on FFT grid          1.25 Mb     (   81920)
        Each G-vector array             0.14 Mb     (   18782)
        G-vector shells                 0.02 Mb     (    2785)
     Largest temporary arrays     est. size (Mb)     dimensions
        Auxiliary wavefunctions         0.29 Mb     (    2354,   16)
        Each subspace H/S matrix        0.00 Mb     (      16,   16)
        Each <psi_i|beta_j> matrix      0.00 Mb     (       3,    4)
        Arrays for rho mixing          10.00 Mb     (   81920,    8)

     Initial potential from superposition of free atoms
     Check: negative starting charge=   -0.000381

     starting charge    7.99992, renormalised to    8.00000

     negative rho (up, down):  3.805E-04 0.000E+00
     Starting wfc are    8 randomized atomic wfcs

     total cpu time spent up to now is        2.9 secs

     per-process dynamical memory:   430.8 Mb

     Self-consistent Calculation

     iteration #  1     ecut=   110.00 Ry     beta=0.50
     Davidson diagonalization with overlap
     ethr =  1.00E-02,  avg # of iterations =  2.0

     negative rho (up, down):  1.800E-04 0.000E+00

     total cpu time spent up to now is        3.3 secs

     total energy              =     -16.02049177 Ry
     Harris-Foulkes estimate   =     -16.39716358 Ry
     estimated scf accuracy    <       0.66982917 Ry

     iteration #  2     ecut=   110.00 Ry     beta=0.50
     Davidson diagonalization with overlap
     ethr =  8.37E-03,  avg # of iterations =  2.0

     negative rho (up, down):  9.497E-05 0.000E+00

     total cpu time spent up to now is        4.0 secs

     total energy              =     -16.15013997 Ry
     Harris-Foulkes estimate   =     -16.16990367 Ry
     estimated scf accuracy    <       0.05111631 Ry

     iteration #  3     ecut=   110.00 Ry     beta=0.50
     Davidson diagonalization with overlap
     ethr =  6.39E-04,  avg # of iterations =  1.0

     negative rho (up, down):  5.490E-06 0.000E+00

     total cpu time spent up to now is        4.4 secs

     total energy              =     -16.14863194 Ry
     Harris-Foulkes estimate   =     -16.15413744 Ry
     estimated scf accuracy    <       0.01158443 Ry

     iteration #  4     ecut=   110.00 Ry     beta=0.50
     Davidson diagonalization with overlap
     ethr =  1.45E-04,  avg # of iterations =  3.0

     negative rho (up, down):  4.556E-06 0.000E+00

     total cpu time spent up to now is        5.0 secs

     total energy              =     -16.15062805 Ry
     Harris-Foulkes estimate   =     -16.15307085 Ry
     estimated scf accuracy    <       0.00575273 Ry

     iteration #  5     ecut=   110.00 Ry     beta=0.50
     Davidson diagonalization with overlap
     ethr =  7.19E-05,  avg # of iterations =  2.0

     negative rho (up, down):  2.499E-06 0.000E+00

     total cpu time spent up to now is        5.5 secs

     total energy              =     -16.15099550 Ry
     Harris-Foulkes estimate   =     -16.15114288 Ry
     estimated scf accuracy    <       0.00033736 Ry

     iteration #  6     ecut=   110.00 Ry     beta=0.50
     Davidson diagonalization with overlap
     ethr =  4.22E-06,  avg # of iterations =  3.0

     negative rho (up, down):  5.291E-08 0.000E+00

     total cpu time spent up to now is        6.1 secs

     total energy              =     -16.15114898 Ry
     Harris-Foulkes estimate   =     -16.15114847 Ry
     estimated scf accuracy    <       0.00001219 Ry

     iteration #  7     ecut=   110.00 Ry     beta=0.50
     Davidson diagonalization with overlap
     ethr =  1.52E-07,  avg # of iterations =  1.0

     total cpu time spent up to now is        6.6 secs

     total energy              =     -16.15114594 Ry
     Harris-Foulkes estimate   =     -16.15114932 Ry
     estimated scf accuracy    <       0.00000946 Ry

     iteration #  8     ecut=   110.00 Ry     beta=0.50
     Davidson diagonalization with overlap
     ethr =  1.18E-07,  avg # of iterations =  1.0

     total cpu time spent up to now is        7.0 secs

     total energy              =     -16.15114611 Ry
     Harris-Foulkes estimate   =     -16.15114667 Ry
     estimated scf accuracy    <       0.00000167 Ry

     iteration #  9     ecut=   110.00 Ry     beta=0.50
     Davidson diagonalization with overlap
     ethr =  2.09E-08,  avg # of iterations =  2.0

     total cpu time spent up to now is        7.4 secs

     End of self-consistent calculation

          k = 0.0000 0.0000 0.0000 ( 65842 PWs)   bands (ev):

   -16.7547  -9.3939  -9.3337  -8.8950

     highest occupied level (ev):    -8.8950

!    total energy              =     -16.15114642 Ry
     Harris-Foulkes estimate   =     -16.15114649 Ry
     estimated scf accuracy    <       0.00000018 Ry

     The total energy is the sum of the following terms:

     one-electron contribution =     -39.90249238 Ry
     hartree contribution      =      20.77361320 Ry
     xc contribution           =      -6.31313196 Ry
     ewald contribution        =       9.29086473 Ry

     convergence has been achieved in   9 iterations

     Forces acting on atoms (Ry/au):

     atom    1 type  1   force =     0.00170985    0.02462092    0.02491702
     atom    2 type  1   force =     0.02267474   -0.01125100    0.01286723
     atom    3 type  1   force =     0.02316293    0.02527514   -0.00971468
     atom    4 type  1   force =    -0.01534194    0.00832291   -0.01698921
     atom    5 type  2   force =    -0.03220558   -0.04696796   -0.01108036

     Total force =     0.085236     Total SCF correction =     0.000151


     entering subroutine stress ...

          total   stress  (Ry/bohr**3)                   (kbar)     P=   -1.02
  -0.00000688   0.00000923  -0.00000529         -1.01      1.36     -0.78
   0.00000923  -0.00000168  -0.00000429          1.36     -0.25     -0.63
  -0.00000529  -0.00000429  -0.00001225         -0.78     -0.63     -1.80


     init_run     :      2.54s CPU      2.55s WALL (       1 calls)
     electrons    :      4.42s CPU      4.48s WALL (       1 calls)
     forces       :      1.05s CPU      1.05s WALL (       1 calls)
     stress       :      1.13s CPU      1.13s WALL (       1 calls)

     Called by init_run:
     wfcinit      :      0.19s CPU      0.19s WALL (       1 calls)
     potinit      :      0.95s CPU      0.96s WALL (       1 calls)

     Called by electrons:
     c_bands      :      1.91s CPU      1.91s WALL (       9 calls)
     sum_band     :      0.48s CPU      0.50s WALL (       9 calls)
     v_of_rho     :      1.95s CPU      1.99s WALL (      10 calls)
     mix_rho      :      0.26s CPU      0.26s WALL (       9 calls)

     Called by c_bands:
     init_us_2    :      0.04s CPU      0.05s WALL (      19 calls)
     regterg      :      1.87s CPU      1.88s WALL (       9 calls)

     Called by sum_band:

     Called by *egterg:
     h_psi        :      2.00s CPU      2.01s WALL (      27 calls)
     g_psi        :      0.01s CPU      0.01s WALL (      17 calls)
     rdiaghg      :      0.00s CPU      0.00s WALL (      26 calls)

     Called by h_psi:
     add_vuspsi   :      0.00s CPU      0.00s WALL (      27 calls)

     General routines
     calbec       :      0.76s CPU      0.76s WALL (      32 calls)
     fft          :      1.90s CPU      1.94s WALL (     117 calls)
     fftw         :      1.27s CPU      1.27s WALL (     124 calls)

     Parallel routines
     fft_scatter  :      1.32s CPU      1.36s WALL (     241 calls)

     PWSCF        :     9.51s CPU         9.61s WALL


   This run was terminated on:  18:45: 7  22Sep2019            

=------------------------------------------------------------------------------=
   JOB DONE.
=------------------------------------------------------------------------------=
