-7.034030000000000005e-01 2.466333000000000109e+00 -3.086900000000000061e-02 -1.037060000000000093e+00 -2.326801000000000119e+00 1.523799999999999981e-02 -8.143150000000000110e-01 -2.369556999999999913e+00 3.904900000000000038e-02 1.471557999999999922e+00 -9.679000000000000103e-02 -8.288999999999999493e-03 5.475079999999999947e-01 1.163967999999999892e+00 -1.723810000000000064e+00 5.357119999999999660e-01 1.162844999999999906e+00 1.708680999999999894e+00
