
     Program PWSCF v.5.4.0 starts on 22Sep2019 at 19: 3:22 

     This program is part of the open-source Quantum ESPRESSO suite
     for quantum simulation of materials; please cite
         "P. Giannozzi et al., J. Phys.:Condens. Matter 21 395502 (2009);
          URL http://www.quantum-espresso.org", 
     in publications or presentations arising from this work. More details at
     http://www.quantum-espresso.org/quote

           HOST :    @host@
           ARCH :    
             CC :    cc
            CPP :    cpp
            F90 :    mpif90
            F77 :    gfortran
         DFLAGS :    -D__GFORTRAN -D__STD_F95 -D__FFTW3 -D__MPI -D__PARA
      BLAS LIBS :    -lopenblas
    LAPACK LIBS :    -lopenblas
       FFT LIBS :    -lfftw3
      MASS LIBS :    

     Parallel version (MPI), running on    28 processors
     R & G space division:  proc/nbgrp/npool/nimage =      28
     Waiting for input...
     Reading input from standard input
Warning: card &IONS ignored
Warning: card / ignored
Warning: card &CELL ignored
Warning: card / ignored

     Current dimensions of program PWSCF are:
     Max number of different atomic species (ntypx) = 10
     Max number of k-points (npk) =  40000
     Max angular momentum in pseudopotentials (lmaxx) =  3

     IMPORTANT: XC functional enforced from input :
     Exchange-correlation      = PBE ( 1  4  3  4 0 0)
     Any further DFT definition will be discarded
     Please, verify this is what you really want


     gamma-point specific algorithms are used

     Subspace diagonalization in iterative solution of the eigenvalue problem:
     a serial algorithm will be used


     Parallelization info
     --------------------
     sticks:   dense  smooth     PW     G-vecs:    dense   smooth      PW
     Min         445     445    110                37558    37558    4694
     Max         448     448    112                37564    37564    4708
     Sum       12517   12517   3125              1051747  1051747  131683
     Tot        6259    6259   1563



     bravais-lattice index     =            1
     lattice parameter (alat)  =      18.8973  a.u.
     unit-cell volume          =    6748.3346 (a.u.)^3
     number of atoms/cell      =            5
     number of atomic types    =            2
     number of electrons       =         8.00
     number of Kohn-Sham states=            4
     kinetic-energy cutoff     =     110.0000  Ry
     charge density cutoff     =     440.0000  Ry
     convergence threshold     =      1.0E-06
     mixing beta               =       0.5000
     number of iterations used =            8  plain     mixing
     Exchange-correlation      = PBE ( 1  4  3  4 0 0)

     celldm(1)=  18.897261  celldm(2)=   0.000000  celldm(3)=   0.000000
     celldm(4)=   0.000000  celldm(5)=   0.000000  celldm(6)=   0.000000

     crystal axes: (cart. coord. in units of alat)
               a(1) = (   1.000000   0.000000   0.000000 )  
               a(2) = (   0.000000   1.000000   0.000000 )  
               a(3) = (   0.000000   0.000000   1.000000 )  

     reciprocal axes: (cart. coord. in units 2 pi/alat)
               b(1) = (  1.000000  0.000000  0.000000 )  
               b(2) = (  0.000000  1.000000  0.000000 )  
               b(3) = (  0.000000  0.000000  1.000000 )  


     PseudoPot. # 1 for  H read from file:
     ../pseudo/H.tm.pbe.UPF
     MD5 check sum: 4b614d66af87240b7a5107bfa527a767
     Pseudo is Norm-conserving, Zval =  1.0
     Generated using "atomic" code by A. Dal Corso  v.5.2.0
     Using radial grid of  929 points,  0 beta functions with: 

     PseudoPot. # 2 for  C read from file:
     ../pseudo/C.tm.pbe.UPF
     MD5 check sum: a4f27fcb9b24331b00ace8e732a7e062
     Pseudo is Norm-conserving, Zval =  4.0
     Generated using "atomic" code by A. Dal Corso  v.5.2.0
     Using radial grid of 1073 points,  1 beta functions with: 
                l(1) =   1

     atomic species   valence    mass     pseudopotential
        H              1.00     1.00000      H( 1.00)
        C              4.00     1.00000      C( 1.00)

     No symmetry found



   Cartesian axes

     site n.     atom                  positions (alat units)
         1           H   tau(   1) = (   0.5480400   0.4065060   0.3553290  )
         2           H   tau(   2) = (   0.4009460   0.4846340   0.4366340  )
         3           H   tau(   3) = (   0.5690540   0.5663980   0.4373910  )
         4           H   tau(   4) = (   0.5392200   0.4170770   0.5301610  )
         5           C   tau(   5) = (   0.5126550   0.4705560   0.4385310  )

     number of k points=     1
                       cart. coord. in units 2pi/alat
        k(    1) = (   0.0000000   0.0000000   0.0000000), wk =   2.0000000

     Dense  grid:   525874 G-vectors     FFT dimensions: ( 128, 128, 128)

     Largest allocated arrays     est. size (Mb)     dimensions
        Kohn-Sham Wavefunctions         0.14 Mb     (    2354,    4)
        NL pseudopotentials             0.11 Mb     (    2354,    3)
        Each V/rho on FFT grid          1.25 Mb     (   81920)
        Each G-vector array             0.14 Mb     (   18782)
        G-vector shells                 0.02 Mb     (    2785)
     Largest temporary arrays     est. size (Mb)     dimensions
        Auxiliary wavefunctions         0.29 Mb     (    2354,   16)
        Each subspace H/S matrix        0.00 Mb     (      16,   16)
        Each <psi_i|beta_j> matrix      0.00 Mb     (       3,    4)
        Arrays for rho mixing          10.00 Mb     (   81920,    8)

     Initial potential from superposition of free atoms
     Check: negative starting charge=   -0.000378

     starting charge    7.99992, renormalised to    8.00000

     negative rho (up, down):  3.784E-04 0.000E+00
     Starting wfc are    8 randomized atomic wfcs

     total cpu time spent up to now is        2.9 secs

     per-process dynamical memory:   430.8 Mb

     Self-consistent Calculation

     iteration #  1     ecut=   110.00 Ry     beta=0.50
     Davidson diagonalization with overlap
     ethr =  1.00E-02,  avg # of iterations =  2.0

     negative rho (up, down):  1.789E-04 0.000E+00

     total cpu time spent up to now is        3.5 secs

     total energy              =     -16.02297857 Ry
     Harris-Foulkes estimate   =     -16.39529911 Ry
     estimated scf accuracy    <       0.66233561 Ry

     iteration #  2     ecut=   110.00 Ry     beta=0.50
     Davidson diagonalization with overlap
     ethr =  8.28E-03,  avg # of iterations =  2.0

     negative rho (up, down):  9.441E-05 0.000E+00

     total cpu time spent up to now is        3.9 secs

     total energy              =     -16.15123668 Ry
     Harris-Foulkes estimate   =     -16.17095137 Ry
     estimated scf accuracy    <       0.05091196 Ry

     iteration #  3     ecut=   110.00 Ry     beta=0.50
     Davidson diagonalization with overlap
     ethr =  6.36E-04,  avg # of iterations =  1.0

     negative rho (up, down):  5.526E-06 0.000E+00

     total cpu time spent up to now is        4.3 secs

     total energy              =     -16.14976691 Ry
     Harris-Foulkes estimate   =     -16.15524169 Ry
     estimated scf accuracy    <       0.01151777 Ry

     iteration #  4     ecut=   110.00 Ry     beta=0.50
     Davidson diagonalization with overlap
     ethr =  1.44E-04,  avg # of iterations =  3.0

     negative rho (up, down):  4.665E-06 0.000E+00

     total cpu time spent up to now is        4.8 secs

     total energy              =     -16.15168019 Ry
     Harris-Foulkes estimate   =     -16.15423519 Ry
     estimated scf accuracy    <       0.00595046 Ry

     iteration #  5     ecut=   110.00 Ry     beta=0.50
     Davidson diagonalization with overlap
     ethr =  7.44E-05,  avg # of iterations =  2.0

     negative rho (up, down):  2.529E-06 0.000E+00

     total cpu time spent up to now is        5.3 secs

     total energy              =     -16.15220524 Ry
     Harris-Foulkes estimate   =     -16.15228240 Ry
     estimated scf accuracy    <       0.00020676 Ry

     iteration #  6     ecut=   110.00 Ry     beta=0.50
     Davidson diagonalization with overlap
     ethr =  2.58E-06,  avg # of iterations =  3.0

     negative rho (up, down):  1.756E-08 0.000E+00

     total cpu time spent up to now is        6.0 secs

     total energy              =     -16.15227927 Ry
     Harris-Foulkes estimate   =     -16.15228075 Ry
     estimated scf accuracy    <       0.00000783 Ry

     iteration #  7     ecut=   110.00 Ry     beta=0.50
     Davidson diagonalization with overlap
     ethr =  9.78E-08,  avg # of iterations =  3.0

     total cpu time spent up to now is        6.5 secs

     total energy              =     -16.15227988 Ry
     Harris-Foulkes estimate   =     -16.15228629 Ry
     estimated scf accuracy    <       0.00001117 Ry

     iteration #  8     ecut=   110.00 Ry     beta=0.50
     Davidson diagonalization with overlap
     ethr =  9.78E-08,  avg # of iterations =  2.0

     total cpu time spent up to now is        7.1 secs

     total energy              =     -16.15228246 Ry
     Harris-Foulkes estimate   =     -16.15228347 Ry
     estimated scf accuracy    <       0.00000206 Ry

     iteration #  9     ecut=   110.00 Ry     beta=0.50
     Davidson diagonalization with overlap
     ethr =  2.57E-08,  avg # of iterations =  2.0

     total cpu time spent up to now is        7.6 secs

     End of self-consistent calculation

          k = 0.0000 0.0000 0.0000 ( 65842 PWs)   bands (ev):

   -16.7347  -9.3248  -9.2025  -9.0559

     highest occupied level (ev):    -9.0559

!    total energy              =     -16.15228274 Ry
     Harris-Foulkes estimate   =     -16.15228282 Ry
     estimated scf accuracy    <       0.00000016 Ry

     The total energy is the sum of the following terms:

     one-electron contribution =     -39.82241015 Ry
     hartree contribution      =      20.73261809 Ry
     xc contribution           =      -6.30527428 Ry
     ewald contribution        =       9.24278359 Ry

     convergence has been achieved in   9 iterations

     Forces acting on atoms (Ry/au):

     atom    1 type  1   force =    -0.01235497    0.01241791    0.00310179
     atom    2 type  1   force =     0.03810058    0.00050588   -0.00581698
     atom    3 type  1   force =    -0.01820233   -0.01286934   -0.00267248
     atom    4 type  1   force =    -0.00146452    0.00015270    0.00875345
     atom    5 type  2   force =    -0.00607876   -0.00020715   -0.00336578

     Total force =     0.049330     Total SCF correction =     0.000296


     entering subroutine stress ...

          total   stress  (Ry/bohr**3)                   (kbar)     P=   -1.27
  -0.00001801  -0.00000095   0.00000235         -2.65     -0.14      0.35
  -0.00000095  -0.00000756  -0.00000282         -0.14     -1.11     -0.41
   0.00000235  -0.00000282  -0.00000031          0.35     -0.41     -0.05


     init_run     :      2.50s CPU      2.53s WALL (       1 calls)
     electrons    :      4.57s CPU      4.67s WALL (       1 calls)
     forces       :      0.89s CPU      0.90s WALL (       1 calls)
     stress       :      1.09s CPU      1.10s WALL (       1 calls)

     Called by init_run:
     wfcinit      :      0.11s CPU      0.11s WALL (       1 calls)
     potinit      :      1.04s CPU      1.04s WALL (       1 calls)

     Called by electrons:
     c_bands      :      2.11s CPU      2.12s WALL (       9 calls)
     sum_band     :      0.46s CPU      0.49s WALL (       9 calls)
     v_of_rho     :      1.92s CPU      1.99s WALL (      10 calls)
     mix_rho      :      0.25s CPU      0.25s WALL (       9 calls)

     Called by c_bands:
     init_us_2    :      0.04s CPU      0.04s WALL (      19 calls)
     regterg      :      2.07s CPU      2.09s WALL (       9 calls)

     Called by sum_band:

     Called by *egterg:
     h_psi        :      2.12s CPU      2.13s WALL (      30 calls)
     g_psi        :      0.01s CPU      0.01s WALL (      20 calls)
     rdiaghg      :      0.00s CPU      0.00s WALL (      29 calls)

     Called by h_psi:
     add_vuspsi   :      0.00s CPU      0.00s WALL (      30 calls)

     General routines
     calbec       :      0.67s CPU      0.67s WALL (      35 calls)
     fft          :      1.79s CPU      1.87s WALL (     117 calls)
     fftw         :      1.47s CPU      1.48s WALL (     132 calls)

     Parallel routines
     fft_scatter  :      1.38s CPU      1.44s WALL (     249 calls)

     PWSCF        :     9.41s CPU         9.60s WALL


   This run was terminated on:  19: 3:32  22Sep2019            

=------------------------------------------------------------------------------=
   JOB DONE.
=------------------------------------------------------------------------------=
