
     Program PWSCF v.5.4.0 starts on 22Sep2019 at 19: 0:15 

     This program is part of the open-source Quantum ESPRESSO suite
     for quantum simulation of materials; please cite
         "P. Giannozzi et al., J. Phys.:Condens. Matter 21 395502 (2009);
          URL http://www.quantum-espresso.org", 
     in publications or presentations arising from this work. More details at
     http://www.quantum-espresso.org/quote

           HOST :    @host@
           ARCH :    
             CC :    cc
            CPP :    cpp
            F90 :    mpif90
            F77 :    gfortran
         DFLAGS :    -D__GFORTRAN -D__STD_F95 -D__FFTW3 -D__MPI -D__PARA
      BLAS LIBS :    -lopenblas
    LAPACK LIBS :    -lopenblas
       FFT LIBS :    -lfftw3
      MASS LIBS :    

     Parallel version (MPI), running on    28 processors
     R & G space division:  proc/nbgrp/npool/nimage =      28
     Waiting for input...
     Reading input from standard input
Warning: card &IONS ignored
Warning: card / ignored
Warning: card &CELL ignored
Warning: card / ignored

     Current dimensions of program PWSCF are:
     Max number of different atomic species (ntypx) = 10
     Max number of k-points (npk) =  40000
     Max angular momentum in pseudopotentials (lmaxx) =  3

     IMPORTANT: XC functional enforced from input :
     Exchange-correlation      = PBE ( 1  4  3  4 0 0)
     Any further DFT definition will be discarded
     Please, verify this is what you really want


     gamma-point specific algorithms are used

     Subspace diagonalization in iterative solution of the eigenvalue problem:
     a serial algorithm will be used


     Parallelization info
     --------------------
     sticks:   dense  smooth     PW     G-vecs:    dense   smooth      PW
     Min         445     445    110                37558    37558    4694
     Max         448     448    112                37564    37564    4708
     Sum       12517   12517   3125              1051747  1051747  131683
     Tot        6259    6259   1563



     bravais-lattice index     =            1
     lattice parameter (alat)  =      18.8973  a.u.
     unit-cell volume          =    6748.3346 (a.u.)^3
     number of atoms/cell      =            5
     number of atomic types    =            2
     number of electrons       =         8.00
     number of Kohn-Sham states=            4
     kinetic-energy cutoff     =     110.0000  Ry
     charge density cutoff     =     440.0000  Ry
     convergence threshold     =      1.0E-06
     mixing beta               =       0.5000
     number of iterations used =            8  plain     mixing
     Exchange-correlation      = PBE ( 1  4  3  4 0 0)

     celldm(1)=  18.897261  celldm(2)=   0.000000  celldm(3)=   0.000000
     celldm(4)=   0.000000  celldm(5)=   0.000000  celldm(6)=   0.000000

     crystal axes: (cart. coord. in units of alat)
               a(1) = (   1.000000   0.000000   0.000000 )  
               a(2) = (   0.000000   1.000000   0.000000 )  
               a(3) = (   0.000000   0.000000   1.000000 )  

     reciprocal axes: (cart. coord. in units 2 pi/alat)
               b(1) = (  1.000000  0.000000  0.000000 )  
               b(2) = (  0.000000  1.000000  0.000000 )  
               b(3) = (  0.000000  0.000000  1.000000 )  


     PseudoPot. # 1 for  H read from file:
     ../pseudo/H.tm.pbe.UPF
     MD5 check sum: 4b614d66af87240b7a5107bfa527a767
     Pseudo is Norm-conserving, Zval =  1.0
     Generated using "atomic" code by A. Dal Corso  v.5.2.0
     Using radial grid of  929 points,  0 beta functions with: 

     PseudoPot. # 2 for  C read from file:
     ../pseudo/C.tm.pbe.UPF
     MD5 check sum: a4f27fcb9b24331b00ace8e732a7e062
     Pseudo is Norm-conserving, Zval =  4.0
     Generated using "atomic" code by A. Dal Corso  v.5.2.0
     Using radial grid of 1073 points,  1 beta functions with: 
                l(1) =   1

     atomic species   valence    mass     pseudopotential
        H              1.00     1.00000      H( 1.00)
        C              4.00     1.00000      C( 1.00)

     No symmetry found



   Cartesian axes

     site n.     atom                  positions (alat units)
         1           H   tau(   1) = (   0.5134440   0.3976750   0.3669110  )
         2           H   tau(   2) = (   0.3808880   0.4868790   0.4507540  )
         3           H   tau(   3) = (   0.5399410   0.5638960   0.4471690  )
         4           H   tau(   4) = (   0.5203490   0.4190100   0.5469360  )
         5           C   tau(   5) = (   0.4890290   0.4671420   0.4544780  )

     number of k points=     1
                       cart. coord. in units 2pi/alat
        k(    1) = (   0.0000000   0.0000000   0.0000000), wk =   2.0000000

     Dense  grid:   525874 G-vectors     FFT dimensions: ( 128, 128, 128)

     Largest allocated arrays     est. size (Mb)     dimensions
        Kohn-Sham Wavefunctions         0.14 Mb     (    2354,    4)
        NL pseudopotentials             0.11 Mb     (    2354,    3)
        Each V/rho on FFT grid          1.25 Mb     (   81920)
        Each G-vector array             0.14 Mb     (   18782)
        G-vector shells                 0.02 Mb     (    2785)
     Largest temporary arrays     est. size (Mb)     dimensions
        Auxiliary wavefunctions         0.29 Mb     (    2354,   16)
        Each subspace H/S matrix        0.00 Mb     (      16,   16)
        Each <psi_i|beta_j> matrix      0.00 Mb     (       3,    4)
        Arrays for rho mixing          10.00 Mb     (   81920,    8)

     Initial potential from superposition of free atoms
     Check: negative starting charge=   -0.000380

     starting charge    7.99992, renormalised to    8.00000

     negative rho (up, down):  3.802E-04 0.000E+00
     Starting wfc are    8 randomized atomic wfcs

     total cpu time spent up to now is        2.8 secs

     per-process dynamical memory:   430.8 Mb

     Self-consistent Calculation

     iteration #  1     ecut=   110.00 Ry     beta=0.50
     Davidson diagonalization with overlap
     ethr =  1.00E-02,  avg # of iterations =  2.0

     negative rho (up, down):  1.798E-04 0.000E+00

     total cpu time spent up to now is        3.3 secs

     total energy              =     -16.02072890 Ry
     Harris-Foulkes estimate   =     -16.39767937 Ry
     estimated scf accuracy    <       0.67032595 Ry

     iteration #  2     ecut=   110.00 Ry     beta=0.50
     Davidson diagonalization with overlap
     ethr =  8.38E-03,  avg # of iterations =  2.0

     negative rho (up, down):  9.483E-05 0.000E+00

     total cpu time spent up to now is        3.9 secs

     total energy              =     -16.15046012 Ry
     Harris-Foulkes estimate   =     -16.17022408 Ry
     estimated scf accuracy    <       0.05112628 Ry

     iteration #  3     ecut=   110.00 Ry     beta=0.50
     Davidson diagonalization with overlap
     ethr =  6.39E-04,  avg # of iterations =  1.0

     negative rho (up, down):  5.489E-06 0.000E+00

     total cpu time spent up to now is        4.3 secs

     total energy              =     -16.14894652 Ry
     Harris-Foulkes estimate   =     -16.15445408 Ry
     estimated scf accuracy    <       0.01158842 Ry

     iteration #  4     ecut=   110.00 Ry     beta=0.50
     Davidson diagonalization with overlap
     ethr =  1.45E-04,  avg # of iterations =  3.0

     negative rho (up, down):  4.512E-06 0.000E+00

     total cpu time spent up to now is        4.9 secs

     total energy              =     -16.15094754 Ry
     Harris-Foulkes estimate   =     -16.15338263 Ry
     estimated scf accuracy    <       0.00574534 Ry

     iteration #  5     ecut=   110.00 Ry     beta=0.50
     Davidson diagonalization with overlap
     ethr =  7.18E-05,  avg # of iterations =  2.0

     negative rho (up, down):  2.441E-06 0.000E+00

     total cpu time spent up to now is        5.4 secs

     total energy              =     -16.15130625 Ry
     Harris-Foulkes estimate   =     -16.15145878 Ry
     estimated scf accuracy    <       0.00034139 Ry

     iteration #  6     ecut=   110.00 Ry     beta=0.50
     Davidson diagonalization with overlap
     ethr =  4.27E-06,  avg # of iterations =  3.0

     negative rho (up, down):  9.225E-08 0.000E+00

     total cpu time spent up to now is        6.1 secs

     total energy              =     -16.15146278 Ry
     Harris-Foulkes estimate   =     -16.15146321 Ry
     estimated scf accuracy    <       0.00001482 Ry

     iteration #  7     ecut=   110.00 Ry     beta=0.50
     Davidson diagonalization with overlap
     ethr =  1.85E-07,  avg # of iterations =  1.0

     total cpu time spent up to now is        6.5 secs

     total energy              =     -16.15145983 Ry
     Harris-Foulkes estimate   =     -16.15146323 Ry
     estimated scf accuracy    <       0.00000997 Ry

     iteration #  8     ecut=   110.00 Ry     beta=0.50
     Davidson diagonalization with overlap
     ethr =  1.25E-07,  avg # of iterations =  1.0

     total cpu time spent up to now is        6.9 secs

     total energy              =     -16.15146002 Ry
     Harris-Foulkes estimate   =     -16.15146060 Ry
     estimated scf accuracy    <       0.00000190 Ry

     iteration #  9     ecut=   110.00 Ry     beta=0.50
     Davidson diagonalization with overlap
     ethr =  2.37E-08,  avg # of iterations =  2.0

     total cpu time spent up to now is        7.4 secs

     End of self-consistent calculation

          k = 0.0000 0.0000 0.0000 ( 65842 PWs)   bands (ev):

   -16.7544  -9.4252  -9.2935  -8.9066

     highest occupied level (ev):    -8.9066

!    total energy              =     -16.15146031 Ry
     Harris-Foulkes estimate   =     -16.15146043 Ry
     estimated scf accuracy    <       0.00000025 Ry

     The total energy is the sum of the following terms:

     one-electron contribution =     -39.90842085 Ry
     hartree contribution      =      20.77642305 Ry
     xc contribution           =      -6.31372304 Ry
     ewald contribution        =       9.29426055 Ry

     convergence has been achieved in   9 iterations

     Forces acting on atoms (Ry/au):

     atom    1 type  1   force =    -0.00354816    0.03745306    0.03739293
     atom    2 type  1   force =     0.00267433   -0.00613079    0.00968072
     atom    3 type  1   force =     0.00661422   -0.00321275   -0.00934666
     atom    4 type  1   force =    -0.00609308   -0.00579646    0.00952515
     atom    5 type  2   force =     0.00035269   -0.02231306   -0.04725214

     Total force =     0.077367     Total SCF correction =     0.000186


     entering subroutine stress ...

          total   stress  (Ry/bohr**3)                   (kbar)     P=   -1.01
  -0.00000250   0.00000345  -0.00000086         -0.37      0.51     -0.13
   0.00000345  -0.00000957  -0.00001057          0.51     -1.41     -1.55
  -0.00000086  -0.00001057  -0.00000848         -0.13     -1.55     -1.25


     init_run     :      2.44s CPU      2.47s WALL (       1 calls)
     electrons    :      4.45s CPU      4.54s WALL (       1 calls)
     forces       :      0.89s CPU      0.89s WALL (       1 calls)
     stress       :      1.12s CPU      1.12s WALL (       1 calls)

     Called by init_run:
     wfcinit      :      0.11s CPU      0.11s WALL (       1 calls)
     potinit      :      0.95s CPU      0.95s WALL (       1 calls)

     Called by electrons:
     c_bands      :      1.98s CPU      2.00s WALL (       9 calls)
     sum_band     :      0.49s CPU      0.50s WALL (       9 calls)
     v_of_rho     :      1.90s CPU      1.96s WALL (      10 calls)
     mix_rho      :      0.25s CPU      0.26s WALL (       9 calls)

     Called by c_bands:
     init_us_2    :      0.04s CPU      0.05s WALL (      19 calls)
     regterg      :      1.94s CPU      1.96s WALL (       9 calls)

     Called by sum_band:

     Called by *egterg:
     h_psi        :      1.99s CPU      2.01s WALL (      27 calls)
     g_psi        :      0.01s CPU      0.01s WALL (      17 calls)
     rdiaghg      :      0.00s CPU      0.00s WALL (      26 calls)

     Called by h_psi:
     add_vuspsi   :      0.00s CPU      0.00s WALL (      27 calls)

     General routines
     calbec       :      0.85s CPU      0.85s WALL (      32 calls)
     fft          :      1.84s CPU      1.90s WALL (     117 calls)
     fftw         :      1.17s CPU      1.19s WALL (     124 calls)

     Parallel routines
     fft_scatter  :      1.18s CPU      1.24s WALL (     241 calls)

     PWSCF        :     9.28s CPU         9.42s WALL


   This run was terminated on:  19: 0:24  22Sep2019            

=------------------------------------------------------------------------------=
   JOB DONE.
=------------------------------------------------------------------------------=
