
     Program PWSCF v.5.4.0 starts on 22Sep2019 at 19:32:39 

     This program is part of the open-source Quantum ESPRESSO suite
     for quantum simulation of materials; please cite
         "P. Giannozzi et al., J. Phys.:Condens. Matter 21 395502 (2009);
          URL http://www.quantum-espresso.org", 
     in publications or presentations arising from this work. More details at
     http://www.quantum-espresso.org/quote

           HOST :    @host@
           ARCH :    
             CC :    cc
            CPP :    cpp
            F90 :    mpif90
            F77 :    gfortran
         DFLAGS :    -D__GFORTRAN -D__STD_F95 -D__FFTW3 -D__MPI -D__PARA
      BLAS LIBS :    -lopenblas
    LAPACK LIBS :    -lopenblas
       FFT LIBS :    -lfftw3
      MASS LIBS :    

     Parallel version (MPI), running on    28 processors
     R & G space division:  proc/nbgrp/npool/nimage =      28
     Waiting for input...
     Reading input from standard input
Warning: card &IONS ignored
Warning: card / ignored
Warning: card &CELL ignored
Warning: card / ignored

     Current dimensions of program PWSCF are:
     Max number of different atomic species (ntypx) = 10
     Max number of k-points (npk) =  40000
     Max angular momentum in pseudopotentials (lmaxx) =  3

     IMPORTANT: XC functional enforced from input :
     Exchange-correlation      = PBE ( 1  4  3  4 0 0)
     Any further DFT definition will be discarded
     Please, verify this is what you really want


     gamma-point specific algorithms are used

     Subspace diagonalization in iterative solution of the eigenvalue problem:
     a serial algorithm will be used


     Parallelization info
     --------------------
     sticks:   dense  smooth     PW     G-vecs:    dense   smooth      PW
     Min         445     445    110                37558    37558    4694
     Max         448     448    112                37564    37564    4708
     Sum       12517   12517   3125              1051747  1051747  131683
     Tot        6259    6259   1563



     bravais-lattice index     =            1
     lattice parameter (alat)  =      18.8973  a.u.
     unit-cell volume          =    6748.3346 (a.u.)^3
     number of atoms/cell      =            5
     number of atomic types    =            2
     number of electrons       =         8.00
     number of Kohn-Sham states=            4
     kinetic-energy cutoff     =     110.0000  Ry
     charge density cutoff     =     440.0000  Ry
     convergence threshold     =      1.0E-06
     mixing beta               =       0.5000
     number of iterations used =            8  plain     mixing
     Exchange-correlation      = PBE ( 1  4  3  4 0 0)

     celldm(1)=  18.897261  celldm(2)=   0.000000  celldm(3)=   0.000000
     celldm(4)=   0.000000  celldm(5)=   0.000000  celldm(6)=   0.000000

     crystal axes: (cart. coord. in units of alat)
               a(1) = (   1.000000   0.000000   0.000000 )  
               a(2) = (   0.000000   1.000000   0.000000 )  
               a(3) = (   0.000000   0.000000   1.000000 )  

     reciprocal axes: (cart. coord. in units 2 pi/alat)
               b(1) = (  1.000000  0.000000  0.000000 )  
               b(2) = (  0.000000  1.000000  0.000000 )  
               b(3) = (  0.000000  0.000000  1.000000 )  


     PseudoPot. # 1 for  H read from file:
     ../pseudo/H.tm.pbe.UPF
     MD5 check sum: 4b614d66af87240b7a5107bfa527a767
     Pseudo is Norm-conserving, Zval =  1.0
     Generated using "atomic" code by A. Dal Corso  v.5.2.0
     Using radial grid of  929 points,  0 beta functions with: 

     PseudoPot. # 2 for  C read from file:
     ../pseudo/C.tm.pbe.UPF
     MD5 check sum: a4f27fcb9b24331b00ace8e732a7e062
     Pseudo is Norm-conserving, Zval =  4.0
     Generated using "atomic" code by A. Dal Corso  v.5.2.0
     Using radial grid of 1073 points,  1 beta functions with: 
                l(1) =   1

     atomic species   valence    mass     pseudopotential
        H              1.00     1.00000      H( 1.00)
        C              4.00     1.00000      C( 1.00)

     No symmetry found



   Cartesian axes

     site n.     atom                  positions (alat units)
         1           H   tau(   1) = (   0.5401920   0.4155580   0.3529320  )
         2           H   tau(   2) = (   0.4012100   0.4836290   0.4390240  )
         3           H   tau(   3) = (   0.5563930   0.5741360   0.4382620  )
         4           H   tau(   4) = (   0.5454800   0.4192580   0.5331030  )
         5           C   tau(   5) = (   0.5091620   0.4719100   0.4423240  )

     number of k points=     1
                       cart. coord. in units 2pi/alat
        k(    1) = (   0.0000000   0.0000000   0.0000000), wk =   2.0000000

     Dense  grid:   525874 G-vectors     FFT dimensions: ( 128, 128, 128)

     Largest allocated arrays     est. size (Mb)     dimensions
        Kohn-Sham Wavefunctions         0.14 Mb     (    2354,    4)
        NL pseudopotentials             0.11 Mb     (    2354,    3)
        Each V/rho on FFT grid          1.25 Mb     (   81920)
        Each G-vector array             0.14 Mb     (   18782)
        G-vector shells                 0.02 Mb     (    2785)
     Largest temporary arrays     est. size (Mb)     dimensions
        Auxiliary wavefunctions         0.29 Mb     (    2354,   16)
        Each subspace H/S matrix        0.00 Mb     (      16,   16)
        Each <psi_i|beta_j> matrix      0.00 Mb     (       3,    4)
        Arrays for rho mixing          10.00 Mb     (   81920,    8)

     Initial potential from superposition of free atoms
     Check: negative starting charge=   -0.000383

     starting charge    7.99992, renormalised to    8.00000

     negative rho (up, down):  3.828E-04 0.000E+00
     Starting wfc are    8 randomized atomic wfcs

     total cpu time spent up to now is        3.0 secs

     per-process dynamical memory:   430.8 Mb

     Self-consistent Calculation

     iteration #  1     ecut=   110.00 Ry     beta=0.50
     Davidson diagonalization with overlap
     ethr =  1.00E-02,  avg # of iterations =  2.0

     negative rho (up, down):  1.810E-04 0.000E+00

     total cpu time spent up to now is        3.4 secs

     total energy              =     -16.02274730 Ry
     Harris-Foulkes estimate   =     -16.39981121 Ry
     estimated scf accuracy    <       0.67062600 Ry

     iteration #  2     ecut=   110.00 Ry     beta=0.50
     Davidson diagonalization with overlap
     ethr =  8.38E-03,  avg # of iterations =  2.0

     negative rho (up, down):  9.538E-05 0.000E+00

     total cpu time spent up to now is        3.9 secs

     total energy              =     -16.15230909 Ry
     Harris-Foulkes estimate   =     -16.17191748 Ry
     estimated scf accuracy    <       0.05075729 Ry

     iteration #  3     ecut=   110.00 Ry     beta=0.50
     Davidson diagonalization with overlap
     ethr =  6.34E-04,  avg # of iterations =  1.0

     negative rho (up, down):  5.523E-06 0.000E+00

     total cpu time spent up to now is        4.3 secs

     total energy              =     -16.15075729 Ry
     Harris-Foulkes estimate   =     -16.15624277 Ry
     estimated scf accuracy    <       0.01153417 Ry

     iteration #  4     ecut=   110.00 Ry     beta=0.50
     Davidson diagonalization with overlap
     ethr =  1.44E-04,  avg # of iterations =  3.0

     negative rho (up, down):  4.660E-06 0.000E+00

     total cpu time spent up to now is        5.0 secs

     total energy              =     -16.15272226 Ry
     Harris-Foulkes estimate   =     -16.15513956 Ry
     estimated scf accuracy    <       0.00566684 Ry

     iteration #  5     ecut=   110.00 Ry     beta=0.50
     Davidson diagonalization with overlap
     ethr =  7.08E-05,  avg # of iterations =  2.0

     negative rho (up, down):  2.611E-06 0.000E+00

     total cpu time spent up to now is        5.5 secs

     total energy              =     -16.15311056 Ry
     Harris-Foulkes estimate   =     -16.15323518 Ry
     estimated scf accuracy    <       0.00032178 Ry

     iteration #  6     ecut=   110.00 Ry     beta=0.50
     Davidson diagonalization with overlap
     ethr =  4.02E-06,  avg # of iterations =  3.0

     negative rho (up, down):  1.239E-08 0.000E+00

     total cpu time spent up to now is        6.2 secs

     total energy              =     -16.15324408 Ry
     Harris-Foulkes estimate   =     -16.15324147 Ry
     estimated scf accuracy    <       0.00000634 Ry

     iteration #  7     ecut=   110.00 Ry     beta=0.50
     Davidson diagonalization with overlap
     ethr =  7.92E-08,  avg # of iterations =  3.0

     total cpu time spent up to now is        6.9 secs

     total energy              =     -16.15324208 Ry
     Harris-Foulkes estimate   =     -16.15324690 Ry
     estimated scf accuracy    <       0.00001065 Ry

     iteration #  8     ecut=   110.00 Ry     beta=0.50
     Davidson diagonalization with overlap
     ethr =  7.92E-08,  avg # of iterations =  2.0

     total cpu time spent up to now is        7.5 secs

     End of self-consistent calculation

          k = 0.0000 0.0000 0.0000 ( 65842 PWs)   bands (ev):

   -16.7529  -9.4182  -9.1558  -9.0545

     highest occupied level (ev):    -9.0545

!    total energy              =     -16.15324262 Ry
     Harris-Foulkes estimate   =     -16.15324306 Ry
     estimated scf accuracy    <       0.00000076 Ry

     The total energy is the sum of the following terms:

     one-electron contribution =     -39.92816407 Ry
     hartree contribution      =      20.78590256 Ry
     xc contribution           =      -6.31524617 Ry
     ewald contribution        =       9.30426506 Ry

     convergence has been achieved in   8 iterations

     Forces acting on atoms (Ry/au):

     atom    1 type  1   force =     0.00119945    0.00231472    0.00487302
     atom    2 type  1   force =    -0.01214689   -0.00226805    0.00945008
     atom    3 type  1   force =    -0.01315245   -0.03073389    0.00164584
     atom    4 type  1   force =    -0.01378490    0.00843649   -0.01304985
     atom    5 type  2   force =     0.03788479    0.02225074   -0.00291909

     Total force =     0.061345     Total SCF correction =     0.000706


     entering subroutine stress ...

          total   stress  (Ry/bohr**3)                   (kbar)     P=   -1.00
  -0.00000133  -0.00000233  -0.00000353         -0.19     -0.34     -0.52
  -0.00000233  -0.00001244   0.00000194         -0.34     -1.83      0.29
  -0.00000353   0.00000194  -0.00000660         -0.52      0.29     -0.97


     init_run     :      2.46s CPU      2.49s WALL (       1 calls)
     electrons    :      4.46s CPU      4.51s WALL (       1 calls)
     forces       :      1.05s CPU      1.05s WALL (       1 calls)
     stress       :      1.10s CPU      1.10s WALL (       1 calls)

     Called by init_run:
     wfcinit      :      0.11s CPU      0.11s WALL (       1 calls)
     potinit      :      1.02s CPU      1.03s WALL (       1 calls)

     Called by electrons:
     c_bands      :      2.26s CPU      2.26s WALL (       8 calls)
     sum_band     :      0.43s CPU      0.43s WALL (       8 calls)
     v_of_rho     :      1.74s CPU      1.79s WALL (       9 calls)
     mix_rho      :      0.21s CPU      0.21s WALL (       8 calls)

     Called by c_bands:
     init_us_2    :      0.04s CPU      0.04s WALL (      17 calls)
     regterg      :      2.23s CPU      2.23s WALL (       8 calls)

     Called by sum_band:

     Called by *egterg:
     h_psi        :      2.28s CPU      2.28s WALL (      27 calls)
     g_psi        :      0.01s CPU      0.01s WALL (      18 calls)
     rdiaghg      :      0.00s CPU      0.00s WALL (      26 calls)

     Called by h_psi:
     add_vuspsi   :      0.00s CPU      0.00s WALL (      27 calls)

     General routines
     calbec       :      1.04s CPU      1.04s WALL (      32 calls)
     fft          :      1.66s CPU      1.70s WALL (     106 calls)
     fftw         :      1.26s CPU      1.26s WALL (     118 calls)

     Parallel routines
     fft_scatter  :      1.22s CPU      1.25s WALL (     224 calls)

     PWSCF        :     9.42s CPU         9.68s WALL


   This run was terminated on:  19:32:48  22Sep2019            

=------------------------------------------------------------------------------=
   JOB DONE.
=------------------------------------------------------------------------------=
