
     Program PWSCF v.5.4.0 starts on 22Sep2019 at 18:58:39 

     This program is part of the open-source Quantum ESPRESSO suite
     for quantum simulation of materials; please cite
         "P. Giannozzi et al., J. Phys.:Condens. Matter 21 395502 (2009);
          URL http://www.quantum-espresso.org", 
     in publications or presentations arising from this work. More details at
     http://www.quantum-espresso.org/quote

           HOST :    @host@
           ARCH :    
             CC :    cc
            CPP :    cpp
            F90 :    mpif90
            F77 :    gfortran
         DFLAGS :    -D__GFORTRAN -D__STD_F95 -D__FFTW3 -D__MPI -D__PARA
      BLAS LIBS :    -lopenblas
    LAPACK LIBS :    -lopenblas
       FFT LIBS :    -lfftw3
      MASS LIBS :    

     Parallel version (MPI), running on    28 processors
     R & G space division:  proc/nbgrp/npool/nimage =      28
     Waiting for input...
     Reading input from standard input
Warning: card &IONS ignored
Warning: card / ignored
Warning: card &CELL ignored
Warning: card / ignored

     Current dimensions of program PWSCF are:
     Max number of different atomic species (ntypx) = 10
     Max number of k-points (npk) =  40000
     Max angular momentum in pseudopotentials (lmaxx) =  3

     IMPORTANT: XC functional enforced from input :
     Exchange-correlation      = PBE ( 1  4  3  4 0 0)
     Any further DFT definition will be discarded
     Please, verify this is what you really want


     gamma-point specific algorithms are used

     Subspace diagonalization in iterative solution of the eigenvalue problem:
     a serial algorithm will be used


     Parallelization info
     --------------------
     sticks:   dense  smooth     PW     G-vecs:    dense   smooth      PW
     Min         445     445    110                37558    37558    4694
     Max         448     448    112                37564    37564    4708
     Sum       12517   12517   3125              1051747  1051747  131683
     Tot        6259    6259   1563



     bravais-lattice index     =            1
     lattice parameter (alat)  =      18.8973  a.u.
     unit-cell volume          =    6748.3346 (a.u.)^3
     number of atoms/cell      =            5
     number of atomic types    =            2
     number of electrons       =         8.00
     number of Kohn-Sham states=            4
     kinetic-energy cutoff     =     110.0000  Ry
     charge density cutoff     =     440.0000  Ry
     convergence threshold     =      1.0E-06
     mixing beta               =       0.5000
     number of iterations used =            8  plain     mixing
     Exchange-correlation      = PBE ( 1  4  3  4 0 0)

     celldm(1)=  18.897261  celldm(2)=   0.000000  celldm(3)=   0.000000
     celldm(4)=   0.000000  celldm(5)=   0.000000  celldm(6)=   0.000000

     crystal axes: (cart. coord. in units of alat)
               a(1) = (   1.000000   0.000000   0.000000 )  
               a(2) = (   0.000000   1.000000   0.000000 )  
               a(3) = (   0.000000   0.000000   1.000000 )  

     reciprocal axes: (cart. coord. in units 2 pi/alat)
               b(1) = (  1.000000  0.000000  0.000000 )  
               b(2) = (  0.000000  1.000000  0.000000 )  
               b(3) = (  0.000000  0.000000  1.000000 )  


     PseudoPot. # 1 for  H read from file:
     ../pseudo/H.tm.pbe.UPF
     MD5 check sum: 4b614d66af87240b7a5107bfa527a767
     Pseudo is Norm-conserving, Zval =  1.0
     Generated using "atomic" code by A. Dal Corso  v.5.2.0
     Using radial grid of  929 points,  0 beta functions with: 

     PseudoPot. # 2 for  C read from file:
     ../pseudo/C.tm.pbe.UPF
     MD5 check sum: a4f27fcb9b24331b00ace8e732a7e062
     Pseudo is Norm-conserving, Zval =  4.0
     Generated using "atomic" code by A. Dal Corso  v.5.2.0
     Using radial grid of 1073 points,  1 beta functions with: 
                l(1) =   1

     atomic species   valence    mass     pseudopotential
        H              1.00     1.00000      H( 1.00)
        C              4.00     1.00000      C( 1.00)

     No symmetry found



   Cartesian axes

     site n.     atom                  positions (alat units)
         1           H   tau(   1) = (   0.5358170   0.4071470   0.3586840  )
         2           H   tau(   2) = (   0.3929080   0.4857340   0.4417560  )
         3           H   tau(   3) = (   0.5525110   0.5670610   0.4398830  )
         4           H   tau(   4) = (   0.5264190   0.4136590   0.5362300  )
         5           C   tau(   5) = (   0.5024890   0.4683650   0.4445610  )

     number of k points=     1
                       cart. coord. in units 2pi/alat
        k(    1) = (   0.0000000   0.0000000   0.0000000), wk =   2.0000000

     Dense  grid:   525874 G-vectors     FFT dimensions: ( 128, 128, 128)

     Largest allocated arrays     est. size (Mb)     dimensions
        Kohn-Sham Wavefunctions         0.14 Mb     (    2354,    4)
        NL pseudopotentials             0.11 Mb     (    2354,    3)
        Each V/rho on FFT grid          1.25 Mb     (   81920)
        Each G-vector array             0.14 Mb     (   18782)
        G-vector shells                 0.02 Mb     (    2785)
     Largest temporary arrays     est. size (Mb)     dimensions
        Auxiliary wavefunctions         0.29 Mb     (    2354,   16)
        Each subspace H/S matrix        0.00 Mb     (      16,   16)
        Each <psi_i|beta_j> matrix      0.00 Mb     (       3,    4)
        Arrays for rho mixing          10.00 Mb     (   81920,    8)

     Initial potential from superposition of free atoms
     Check: negative starting charge=   -0.000382

     starting charge    7.99992, renormalised to    8.00000

     negative rho (up, down):  3.820E-04 0.000E+00
     Starting wfc are    8 randomized atomic wfcs

     total cpu time spent up to now is        2.8 secs

     per-process dynamical memory:   430.8 Mb

     Self-consistent Calculation

     iteration #  1     ecut=   110.00 Ry     beta=0.50
     Davidson diagonalization with overlap
     ethr =  1.00E-02,  avg # of iterations =  2.0

     negative rho (up, down):  1.806E-04 0.000E+00

     total cpu time spent up to now is        3.3 secs

     total energy              =     -16.02323147 Ry
     Harris-Foulkes estimate   =     -16.40235455 Ry
     estimated scf accuracy    <       0.67420187 Ry

     iteration #  2     ecut=   110.00 Ry     beta=0.50
     Davidson diagonalization with overlap
     ethr =  8.43E-03,  avg # of iterations =  2.0

     negative rho (up, down):  9.500E-05 0.000E+00

     total cpu time spent up to now is        3.7 secs

     total energy              =     -16.15329812 Ry
     Harris-Foulkes estimate   =     -16.17275122 Ry
     estimated scf accuracy    <       0.05043585 Ry

     iteration #  3     ecut=   110.00 Ry     beta=0.50
     Davidson diagonalization with overlap
     ethr =  6.30E-04,  avg # of iterations =  1.0

     negative rho (up, down):  5.489E-06 0.000E+00

     total cpu time spent up to now is        4.1 secs

     total energy              =     -16.15170063 Ry
     Harris-Foulkes estimate   =     -16.15716926 Ry
     estimated scf accuracy    <       0.01150056 Ry

     iteration #  4     ecut=   110.00 Ry     beta=0.50
     Davidson diagonalization with overlap
     ethr =  1.44E-04,  avg # of iterations =  3.0

     negative rho (up, down):  4.539E-06 0.000E+00

     total cpu time spent up to now is        4.6 secs

     total energy              =     -16.15365420 Ry
     Harris-Foulkes estimate   =     -16.15601156 Ry
     estimated scf accuracy    <       0.00554297 Ry

     iteration #  5     ecut=   110.00 Ry     beta=0.50
     Davidson diagonalization with overlap
     ethr =  6.93E-05,  avg # of iterations =  2.0

     negative rho (up, down):  1.901E-06 0.000E+00

     total cpu time spent up to now is        5.2 secs

     total energy              =     -16.15399167 Ry
     Harris-Foulkes estimate   =     -16.15414714 Ry
     estimated scf accuracy    <       0.00032854 Ry

     iteration #  6     ecut=   110.00 Ry     beta=0.50
     Davidson diagonalization with overlap
     ethr =  4.11E-06,  avg # of iterations =  3.0

     negative rho (up, down):  7.834E-08 0.000E+00

     total cpu time spent up to now is        5.6 secs

     total energy              =     -16.15415180 Ry
     Harris-Foulkes estimate   =     -16.15415798 Ry
     estimated scf accuracy    <       0.00002577 Ry

     iteration #  7     ecut=   110.00 Ry     beta=0.50
     Davidson diagonalization with overlap
     ethr =  3.22E-07,  avg # of iterations =  1.0

     total cpu time spent up to now is        6.0 secs

     total energy              =     -16.15415085 Ry
     Harris-Foulkes estimate   =     -16.15415341 Ry
     estimated scf accuracy    <       0.00000812 Ry

     iteration #  8     ecut=   110.00 Ry     beta=0.50
     Davidson diagonalization with overlap
     ethr =  1.01E-07,  avg # of iterations =  2.0

     total cpu time spent up to now is        6.4 secs

     total energy              =     -16.15415151 Ry
     Harris-Foulkes estimate   =     -16.15415159 Ry
     estimated scf accuracy    <       0.00000155 Ry

     iteration #  9     ecut=   110.00 Ry     beta=0.50
     Davidson diagonalization with overlap
     ethr =  1.93E-08,  avg # of iterations =  2.0

     total cpu time spent up to now is        6.8 secs

     End of self-consistent calculation

          k = 0.0000 0.0000 0.0000 ( 65842 PWs)   bands (ev):

   -16.7637  -9.3693  -9.2680  -9.0127

     highest occupied level (ev):    -9.0127

!    total energy              =     -16.15415110 Ry
     Harris-Foulkes estimate   =     -16.15415164 Ry
     estimated scf accuracy    <       0.00000079 Ry

     The total energy is the sum of the following terms:

     one-electron contribution =     -39.98021946 Ry
     hartree contribution      =      20.81227940 Ry
     xc contribution           =      -6.31988146 Ry
     ewald contribution        =       9.33367043 Ry

     convergence has been achieved in   9 iterations

     Forces acting on atoms (Ry/au):

     atom    1 type  1   force =    -0.00934426    0.00794612    0.00585480
     atom    2 type  1   force =     0.01497447   -0.00674021   -0.00507845
     atom    3 type  1   force =    -0.00157647   -0.01462995    0.00674610
     atom    4 type  1   force =     0.00488807    0.00572948    0.00527150
     atom    5 type  2   force =    -0.00894181    0.00769456   -0.01279395

     Total force =     0.033609     Total SCF correction =     0.000538


     entering subroutine stress ...

          total   stress  (Ry/bohr**3)                   (kbar)     P=   -0.89
  -0.00000739   0.00000113   0.00000338         -1.09      0.17      0.50
   0.00000113  -0.00000863  -0.00000021          0.17     -1.27     -0.03
   0.00000338  -0.00000021  -0.00000213          0.50     -0.03     -0.31


     init_run     :      2.40s CPU      2.44s WALL (       1 calls)
     electrons    :      3.91s CPU      3.99s WALL (       1 calls)
     forces       :      0.92s CPU      0.92s WALL (       1 calls)
     stress       :      1.32s CPU      1.32s WALL (       1 calls)

     Called by init_run:
     wfcinit      :      0.10s CPU      0.11s WALL (       1 calls)
     potinit      :      0.93s CPU      0.94s WALL (       1 calls)

     Called by electrons:
     c_bands      :      1.43s CPU      1.46s WALL (       9 calls)
     sum_band     :      0.50s CPU      0.51s WALL (       9 calls)
     v_of_rho     :      1.88s CPU      1.94s WALL (      10 calls)
     mix_rho      :      0.26s CPU      0.26s WALL (       9 calls)

     Called by c_bands:
     init_us_2    :      0.05s CPU      0.05s WALL (      19 calls)
     regterg      :      1.40s CPU      1.42s WALL (       9 calls)

     Called by sum_band:

     Called by *egterg:
     h_psi        :      1.44s CPU      1.47s WALL (      28 calls)
     g_psi        :      0.01s CPU      0.01s WALL (      18 calls)
     rdiaghg      :      0.00s CPU      0.00s WALL (      27 calls)

     Called by h_psi:
     add_vuspsi   :      0.00s CPU      0.00s WALL (      28 calls)

     General routines
     calbec       :      0.29s CPU      0.29s WALL (      33 calls)
     fft          :      1.82s CPU      1.87s WALL (     117 calls)
     fftw         :      1.19s CPU      1.22s WALL (     124 calls)

     Parallel routines
     fft_scatter  :      1.22s CPU      1.27s WALL (     241 calls)

     PWSCF        :     8.91s CPU         9.05s WALL


   This run was terminated on:  18:58:48  22Sep2019            

=------------------------------------------------------------------------------=
   JOB DONE.
=------------------------------------------------------------------------------=
