5.798500061035156250e+00 3.626600027084350586e+00 1.258240032196044922e+01 4.319290161132812500e+00 1.057159996032714844e+01 1.121669960021972656e+01 1.781280040740966797e+00 5.459099769592285156e+00 1.102649974822998047e+01 1.269900035858154297e+01 6.067679882049560547e+00 1.167020034790039062e+01 1.058050036430358887e+00 8.689149856567382812e+00 1.331989955902099609e+01 3.074039936065673828e+00 3.450829982757568359e+00 1.256569957733154297e+01 7.908699989318847656e+00 9.322819709777832031e+00 9.473779678344726562e+00 7.887879848480224609e+00 1.842299997806549072e-01 1.401529979705810547e+01 1.046199989318847656e+01 5.851699709892272949e-01 3.970000028610229492e+00 1.204679965972900391e+01 6.827519893646240234e+00 2.861949920654296875e+00 1.306340026855468750e+01 1.444369983673095703e+01 3.865730047225952148e+00 2.650350093841552734e+00 7.176760196685791016e+00 9.905700087547302246e-01 8.054499626159667969e+00 5.286620140075683594e+00 1.429880046844482422e+01 1.337110042572021484e+01 8.980870246887207031e+00 1.942680001258850098e+00 3.430880069732666016e+00 1.495487022399902344e+01 2.650540113449096680e+00 5.271570205688476562e+00 6.310550212860107422e+00 1.076969981193542480e+00 5.394410133361816406e+00 3.478899955749511719e+00 1.376699954271316528e-01 6.730810165405273438e+00 9.537210464477539062e+00 2.846349954605102539e+00 1.090410041809082031e+01 6.070439815521240234e+00 1.438169956207275391e+01 9.654919624328613281e+00 1.254990005493164062e+01 3.594969987869262695e+00 8.977939605712890625e+00 4.002170085906982422e+00 7.691150188446044922e+00 6.348849773406982422e+00 1.249919986724853516e+01 1.150409984588623047e+01 3.012199997901916504e-01 1.133629989624023438e+01 1.176379966735839844e+01 5.503699779510498047e-01 1.468160033226013184e+00 9.952930450439453125e+00 1.364640045166015625e+01 4.902200102806091309e-01 8.683000206947326660e-01 3.255589962005615234e+00 1.170440006256103516e+01 5.293320178985595703e+00 1.419830036163330078e+01 2.139859914779663086e+00 2.927680015563964844e+00 2.551470041275024414e+00 6.513539791107177734e+00 3.484899997711181641e+00 2.070980072021484375e+00 7.557779788970947266e+00 9.368069648742675781e+00 1.296560001373291016e+01 1.307229995727539062e+01 1.463510036468505859e+01 7.302879810333251953e+00 7.555560111999511719e+00 1.536719989776611328e+01 9.579999923706054688e+00 1.438609981536865234e+01 1.192560005187988281e+01 8.134899735450744629e-01 3.954989910125732422e+00 9.154890060424804688e+00 2.514640092849731445e+00 1.036979961395263672e+01 7.662779808044433594e+00 1.075310039520263672e+01 1.386940002441406250e+01 7.678770065307617188e+00 5.188280105590820312e+00 7.028190135955810547e+00 9.203430175781250000e+00 3.696520090103149414e+00 1.483010005950927734e+01 6.561789989471435547e+00 4.982699871063232422e+00 9.643770217895507812e+00 8.369859695434570312e+00 1.400240039825439453e+01 4.748089790344238281e+00 7.559319972991943359e+00 8.751020431518554688e+00 1.265390014648437500e+01 6.069819927215576172e+00 3.348649978637695312e+00 1.176379966735839844e+01 1.428750038146972656e+01 6.633000075817108154e-02 1.034179973602294922e+01 3.830670118331909180e+00 1.071990013122558594e+00 1.410050010681152344e+01 1.986840009689331055e+00 5.540369987487792969e+00 1.267440032958984375e+01 1.526609992980957031e+01 7.445469856262207031e+00 2.758650064468383789e+00 1.681220054626464844e+00 7.127029895782470703e+00 1.123040008544921875e+01 1.366149997711181641e+01 1.306779956817626953e+01 4.466810226440429688e+00 1.499260044097900391e+01 8.694580078125000000e+00 1.377789974212646484e+01 3.681899905204772949e-01 4.814330101013183594e+00 2.110579967498779297e+00 7.332520008087158203e+00 1.572160005569458008e+00 1.388370037078857422e+01 4.954249858856201172e+00 1.456910037994384766e+01 6.744090080261230469e+00 5.884850025177001953e+00 7.810500144958496094e+00 6.020699977874755859e+00 9.130869865417480469e+00 5.117350101470947266e+00 1.593499928712844849e-01 1.412580013275146484e+01 3.822910070419311523e+00 8.519519805908203125e+00 1.292630004882812500e+01 9.982709884643554688e+00 7.602650165557861328e+00 1.246199989318847656e+01 1.212689971923828125e+01 1.064830017089843750e+01 1.097799986600875854e-01 3.846240043640136719e+00 1.554990053176879883e+00 4.776600003242492676e-01 5.499859809875488281e+00 9.600979804992675781e+00 1.463799953460693359e+01 7.345149993896484375e+00 1.933999918401241302e-02 2.445830106735229492e+00 8.358929634094238281e+00 1.121339988708496094e+01 1.489580035209655762e+00 1.038630008697509766e+01 2.471149921417236328e+00 9.126879692077636719e+00 8.362660408020019531e+00 1.214120006561279297e+01 9.475419998168945312e+00 2.796720027923583984e+00 4.499100148677825928e-01 1.160540008544921875e+01 1.619660019874572754e+00 1.205949974060058594e+01 9.579970359802246094e+00 1.487209987640380859e+01 4.824190139770507812e+00 1.277849960327148438e+01 6.107199788093566895e-01 1.168200016021728516e+01 1.266020059585571289e+00 1.073849964141845703e+01 4.963190078735351562e+00 4.882400035858154297e+00 1.192539978027343750e+01 8.798210144042968750e+00 5.661210060119628906e+00 1.233710002899169922e+01 7.273399829864501953e-01 6.170380115509033203e+00 4.455639839172363281e+00 9.920080184936523438e+00 1.686269998550415039e+00 1.091880035400390625e+01 8.304999768733978271e-02 1.117990016937255859e+00 9.729260444641113281e+00 7.941180229187011719e+00 7.045849800109863281e+00 8.048350334167480469e+00 6.457910060882568359e+00 5.791510105133056641e+00 5.768869876861572266e+00 1.030809974670410156e+01 5.259769916534423828e+00 1.177639961242675781e+01 3.195199966430664062e+00 6.668660163879394531e+00 1.093579959869384766e+01 3.894779920578002930e+00 1.127050018310546875e+01 5.403669834136962891e+00 6.375229835510253906e+00 1.198169994354248047e+01 3.948319911956787109e+00 1.392599964141845703e+01 8.908699989318847656e+00 1.188570022583007812e+01 9.650600433349609375e+00 9.911029815673828125e+00 1.143980026245117188e+01 1.578520059585571289e+00 1.258209991455078125e+01 5.493929862976074219e+00 6.473579883575439453e+00 3.562040090560913086e+00 4.228469848632812500e+00 2.443120002746582031e+00 4.137829780578613281e+00 5.060200095176696777e-01 4.958149909973144531e+00 4.031569957733154297e+00 5.730130195617675781e+00 1.374790000915527344e+01 5.249289989471435547e+00 2.752439975738525391e+00 9.416810035705566406e+00 3.727089881896972656e+00 4.987840175628662109e+00 1.306550025939941406e+01 2.365380048751831055e+00 1.246549963951110840e+00 2.626430034637451172e+00 5.047830104827880859e+00 1.250030040740966797e+01 8.680800437927246094e+00 1.355309963226318359e+01 7.814310073852539062e+00 5.131400227546691895e-01 5.370769977569580078e+00 1.019349956512451172e+01 9.729299545288085938e+00 3.941790103912353516e+00 1.320569992065429688e+01 4.602880001068115234e+00 2.349420070648193359e+00 1.406449985504150391e+01 1.247010040283203125e+01 8.145910263061523438e+00 1.890669941902160645e+00 2.844049930572509766e+00 1.481180000305175781e+01 1.105739951133728027e+00 5.257470130920410156e+00 1.535900020599365234e+01 1.146399974822998047e+01 2.357209920883178711e+00 1.520040035247802734e+01 9.763190269470214844e+00 9.298970222473144531e+00 5.882000178098678589e-02 9.899069786071777344e+00 3.080840110778808594e+00 3.130909919738769531e+00 7.503540039062500000e+00 1.042930030822753906e+01 7.006889820098876953e+00 4.877820014953613281e+00 7.862299919128417969e+00 5.669449806213378906e+00 1.305930042266845703e+01 1.446749973297119141e+01 9.769610404968261719e+00 6.562059879302978516e+00 9.715700149536132812e-01 9.134229660034179688e+00 1.419789981842041016e+01 8.669110298156738281e+00 1.148320007324218750e+01 8.781820297241210938e+00 2.487869977951049805e+00 1.501869964599609375e+01 9.880499839782714844e+00 1.138210010528564453e+01 1.282170009613037109e+01 1.433740043640136719e+01 7.354430198669433594e+00 1.528989982604980469e+01 1.423359966278076172e+01 2.106050014495849609e+00 1.222780036926269531e+01 8.565779685974121094e+00 7.546229839324951172e+00 3.329329967498779297e+00 1.533540010452270508e+00 1.352410030364990234e+01 1.299670028686523438e+01 4.076600074768066406e-01 8.080300092697143555e-01 1.439550018310546875e+01 1.431449985504150391e+01 1.268999958038330078e+01 5.304269790649414062e+00 1.088140010833740234e+01 1.226580047607421875e+01 9.879870414733886719e+00 9.766869544982910156e+00 5.529220104217529297e+00 1.554149985313415527e+00 1.010929965972900391e+01 7.484409809112548828e+00 9.903639793395996094e+00 6.493309974670410156e+00 1.342640018463134766e+01 7.948420047760009766e+00 7.002000212669372559e-01 8.633879661560058594e+00 7.530089855194091797e+00 5.489600181579589844e+00 7.788000255823135376e-02 1.149549961090087891e+01 3.386820077896118164e+00 6.465519905090332031e+00 7.340929985046386719e+00 2.113739967346191406e+00 9.656940460205078125e+00 3.064599931240081787e-01 1.227799987792968750e+01 6.749889850616455078e+00 8.162260055541992188e+00 9.146409988403320312e+00 1.492010021209716797e+01 9.375960350036621094e+00 8.422550201416015625e+00 4.697959899902343750e+00 1.145750045776367188e+01 7.308410167694091797e+00 8.355500221252441406e+00 1.184850025177001953e+01 2.685689926147460938e+00 3.856309890747070312e+00 7.235640048980712891e+00 1.307979965209960938e+01 1.283979988098144531e+01 1.188910007476806641e+01 1.473700046539306641e+01 1.728420019149780273e+00 7.126880168914794922e+00 6.222310066223144531e+00 4.018939971923828125e+00 3.494970083236694336e+00 7.139210224151611328e+00 3.032130002975463867e+00 5.899899959564208984e+00 1.328709983825683594e+01 9.819729804992675781e+00 7.741129875183105469e+00 6.037809848785400391e+00 4.572030067443847656e+00 1.236429977416992188e+01 4.635709762573242188e+00 1.049829959869384766e+01 1.026119995117187500e+01 1.445719957351684570e+00 4.862339973449707031e+00 1.031490039825439453e+01 1.202540016174316406e+01 5.360620021820068359e+00 1.124989986419677734e+01 5.857009887695312500e+00 3.516499996185302734e+00 1.357429981231689453e+01 4.748849868774414062e+00 1.139500045776367188e+01 1.140600013732910156e+01 1.014119982719421387e+00 5.406099796295166016e+00 1.169460010528564453e+01 1.321899986267089844e+01 6.468180179595947266e+00 1.091800022125244141e+01 1.964200019836425781e+00 8.483160018920898438e+00 1.299919986724853516e+01 2.917720079421997070e+00 4.322020053863525391e+00 1.211870002746582031e+01 7.749549865722656250e+00 9.196109771728515625e+00 1.041409969329833984e+01 6.947299957275390625e+00 3.930499851703643799e-01 1.401869964599609375e+01 4.051299989223480225e-01 8.680700302124023438e+00 1.254679965972900391e+01 4.013299942016601562e+00 3.403909921646118164e+00 1.254699993133544922e+01 8.687170028686523438e+00 8.699660301208496094e+00 9.376910209655761719e+00 8.332200050354003906e+00 1.039190053939819336e+00 1.433600044250488281e+01 1.107310009002685547e+01 7.013199925422668457e-01 4.732989788055419922e+00 1.259360027313232422e+01 8.245750427246093750e+00 5.241590023040771484e+00 1.269279956817626953e+01 1.481739997863769531e+01 4.692279815673828125e+00 2.471729993820190430e+00 6.995289802551269531e+00 1.918210029602050781e+00 1.094880008697509766e+01 2.539399862289428711e-01 3.165220022201538086e+00 1.184609985351562500e+01 6.725090026855468750e+00 3.889130115509033203e+00 1.344009971618652344e+01 2.533099949359893799e-01 3.340500116348266602e+00 2.352999925613403320e+00 8.145899772644042969e+00 7.552099823951721191e-01 8.033659934997558594e+00 4.993480205535888672e+00 1.336120033264160156e+01 1.362100028991699219e+01 8.353389739990234375e+00 1.141489982604980469e+00 2.429699897766113281e+00 1.462839984893798828e+01 2.356220006942749023e+00 6.070519924163818359e+00 6.908040046691894531e+00 7.590399980545043945e-01 8.980259895324707031e+00 5.395589828491210938e+00 1.456639957427978516e+01 1.287150001525878906e+01 9.718239784240722656e+00 1.669800043106079102e+00 3.710690021514892578e+00 6.401000022888183594e-01 1.825909972190856934e+00 4.421989917755126953e+00 6.625259876251220703e+00 7.737200260162353516e-01 6.173689842224121094e+00 3.242700099945068359e+00 6.525099873542785645e-01 6.625629901885986328e+00 9.848750114440917969e+00 3.785969972610473633e+00 1.183629989624023438e+01 5.618390083312988281e+00 1.456250000000000000e+01 9.283370018005371094e+00 1.250450038909912109e+01 4.506000041961669922e+00 5.321869850158691406e+00 4.405099868774414062e+00 3.316099941730499268e-01 7.056879997253417969e+00 8.637379646301269531e+00 2.968090057373046875e+00 1.051010036468505859e+01 6.011199951171875000e+00 1.531060028076171875e+01 1.007229995727539062e+01 1.339140033721923828e+01 3.364609956741333008e+00 8.604960441589355469e+00 4.784480094909667969e+00 8.160349845886230469e+00 6.263760089874267578e+00 1.345300006866455078e+01 1.169699954986572266e+01 5.326499938964843750e-01 1.049190044403076172e+01 1.227760028839111328e+01 1.493560028076171875e+01 1.801390051841735840e+00 1.067290019989013672e+01 8.340880393981933594e+00 3.776230096817016602e+00 6.979179859161376953e+00 6.970829963684082031e+00 1.237020015716552734e+01 1.072159957885742188e+01 7.581700086593627930e-01 1.131070041656494141e+01 1.091629981994628906e+01 1.313650012016296387e+00 1.176290035247802734e+00 1.043690013885498047e+01 1.393959999084472656e+01 1.126979947090148926e+00 1.494940042495727539e+00 3.168100118637084961e+00 1.089350032806396484e+01 4.682419776916503906e+00 1.494489955902099609e+01 2.072819948196411133e+00 3.600680112838745117e+00 1.255360031127929688e+01 7.626739978790283203e+00 2.775079965591430664e+00 1.423630046844482422e+01 6.573200225830078125e-01 7.585000246763229370e-02 2.635200023651123047e+00 1.235709953308105469e+01 4.976610183715820312e+00 1.332600021362304688e+01 4.625579833984375000e+00 1.411859989166259766e+00 3.449259996414184570e+00 6.106369972229003906e+00 3.739190101623535156e+00 1.799119949340820312e+00 6.859069824218750000e+00 1.005090045928955078e+01 1.367640018463134766e+01 1.359529972076416016e+01 1.493470001220703125e+01 7.498350143432617188e+00 6.724420070648193359e+00 1.486670017242431641e+01 1.007929992675781250e+01 1.354860019683837891e+01 1.212380027770996094e+01 2.720249891281127930e+00 8.038370132446289062e+00 9.900549888610839844e+00 1.269379997253417969e+01 1.227670001983642578e+01 1.522490024566650391e+01 6.798180103302001953e+00 8.165209770202636719e+00 1.478499984741210938e+01 8.732789993286132812e+00 1.448509979248046875e+01 1.251580047607421875e+01 1.388920021057128906e+01 1.317999958992004395e+00 6.809279918670654297e+00 3.471780061721801758e+00 1.004080009460449219e+01 8.142829895019531250e+00 1.112479972839355469e+01 1.325479984283447266e+01 8.378890037536621094e+00 4.494009971618652344e+00 6.634270191192626953e+00 8.645099639892578125e+00 1.566239953041076660e+00 3.760400056838989258e+00 8.387160301208496094e+00 2.693389892578125000e+00 1.082520008087158203e+01 6.787439823150634766e+00 4.906869888305664062e+00 1.411040019989013672e+01 5.704030036926269531e+00 5.943439960479736328e+00 6.673230171203613281e+00 8.747739791870117188e+00 3.654779911041259766e+00 1.440240001678466797e+01 7.520480155944824219e+00 5.301420211791992188e+00 8.779170036315917969e+00 8.732139587402343750e+00 1.350979995727539062e+01 3.932440042495727539e+00 7.148799896240234375e+00 8.189800262451171875e+00 1.344760036468505859e+01 5.861899852752685547e+00 2.894929885864257812e+00 1.480290031433105469e+01 6.038990020751953125e+00 5.675169944763183594e+00 1.021339988708496094e+01 8.075160026550292969e+00 1.466489982604980469e+01 4.331110000610351562e+00 8.154170036315917969e+00 9.392020225524902344e+00 1.314630031585693359e+01 6.667689800262451172e+00 3.702539920806884766e+00 1.107429981231689453e+01 1.370279979705810547e+01 1.439319992065429688e+01 9.725210189819335938e+00 3.383450031280517578e+00 9.348000288009643555e-01 1.316569995880126953e+01 1.590749979019165039e+00 5.569220066070556641e+00 1.288910007476806641e+01 8.142300248146057129e-01 4.117700099945068359e+00 1.226379966735839844e+01 1.481599998474121094e+01 1.460050010681152344e+01 1.112010002136230469e+01 4.253789901733398438e+00 3.766799867153167725e-01 1.464820003509521484e+01 1.627869963645935059e+00 5.426489830017089844e+00 1.351679992675781250e+01 1.474289989471435547e+01 6.695280075073242188e+00 3.573280096054077148e+00 2.786499977111816406e+00 6.864109992980957031e+00 1.173120021820068359e+01 1.283769989013671875e+01 1.373540019989013672e+01 4.336009979248046875e+00 1.430160045623779297e+01 8.267290115356445312e+00 1.418459987640380859e+01 1.504039955139160156e+01 1.040810012817382812e+01 4.270339965820312500e+00 4.220590114593505859e+00 6.814610004425048828e+00 1.165610027313232422e+01 1.443299961090087891e+01 1.249660015106201172e+01 3.578370094299316406e+00 1.510669994354248047e+01 8.533009529113769531e+00 1.287629985809326172e+01 5.007799863815307617e-01 5.505449771881103516e+00 2.423609972000122070e+00 6.801620006561279297e+00 6.842200160026550293e-01 1.340769958496093750e+01 5.007420063018798828e+00 1.429069995880126953e+01 5.944200038909912109e+00 6.533460140228271484e+00 8.513389587402343750e+00 6.682929992675781250e+00 9.289319992065429688e+00 4.423779964447021484e+00 1.323570013046264648e+00 6.974040031433105469e+00 1.468919992446899414e+00 1.417370033264160156e+01 4.024109840393066406e+00 1.472900062799453735e-01 7.439640045166015625e+00 6.348259925842285156e+00 4.340290069580078125e+00 1.390390014648437500e+01 2.404020071029663086e+00 4.438560009002685547e+00 7.730600237846374512e-01 1.455119991302490234e+01 4.062260150909423828e+00 9.153180122375488281e+00 1.222809982299804688e+01 1.006960010528564453e+01 6.933780193328857422e+00 1.311139965057373047e+01 1.117029953002929688e+01 1.025860023498535156e+01 1.544519996643066406e+01 7.334790229797363281e+00 1.821409940719604492e+00 1.864959955215454102e+00 4.433310031890869141e+00 8.729539871215820312e+00 1.361660003662109375e+01 9.099220275878906250e+00 7.966020107269287109e+00 1.250259971618652344e+01 1.264019966125488281e+01 1.036340045928955078e+01 1.471329975128173828e+01 3.019870042800903320e+00 1.907439947128295898e+00 2.134499996900558472e-01 5.246319770812988281e+00 9.731829643249511719e+00 1.634200066328048706e-01 6.410950183868408203e+00 1.472169971466064453e+01 2.182940006256103516e+00 7.621140003204345703e+00 1.070090007781982422e+01 1.883020043373107910e+00 4.465479850769042969e+00 2.337519884109497070e+00 5.736700296401977539e-01 5.996699810028076172e+00 1.037110042572021484e+01 1.429319953918457031e+01 7.998970031738281250e+00 1.457929992675781250e+01 1.680310010910034180e+00 8.755740165710449219e+00 1.178390026092529297e+01 2.292180061340332031e+00 1.028549957275390625e+01 1.445540046691894531e+01 8.310480117797851562e+00 8.331439971923828125e+00 1.120530033111572266e+01 9.489489555358886719e+00 2.310110092163085938e+00 1.481270027160644531e+01 1.215670013427734375e+01 8.453400135040283203e-01 1.238920021057128906e+01 9.228039741516113281e+00 1.004030036926269531e+01 1.573950052261352539e+00 9.216259956359863281e+00 9.206939697265625000e+00 1.239990043640136719e+01 9.862910270690917969e+00 2.954279899597167969e+00 1.193330049514770508e+00 1.220890045166015625e+01 1.815770030021667480e+00 1.133979988098144531e+01 8.894590377807617188e+00 1.411660003662109375e+01 5.345439910888671875e+00 1.241259956359863281e+01 5.430799722671508789e-01 1.121370029449462891e+01 2.125910043716430664e+00 9.877099990844726562e+00 4.625420093536376953e+00 1.888890027999877930e+00 1.136900043487548828e+01 9.263950347900390625e+00 4.870180130004882812e+00 1.460470008850097656e+01 3.880500078201293945e+00 1.266930007934570312e+01 1.306079983711242676e+00 1.111830043792724609e+01 7.771300077438354492e-01 9.991649627685546875e+00 5.124110221862792969e+00 5.492119789123535156e+00 1.294699954986572266e+01 9.492639541625976562e+00 6.860320091247558594e+00 1.191300010681152344e+01 1.715909957885742188e+00 6.165939807891845703e+00 5.327730178833007812e+00 9.877449989318847656e+00 2.230210065841674805e+00 7.980440139770507812e+00 5.631919860839843750e+00 9.999690055847167969e+00 1.045860004425048828e+01 7.419939994812011719e+00 7.344359874725341797e+00 1.174250030517578125e+01 2.692500054836273193e-01 6.816810131072998047e+00 3.749880075454711914e+00 9.741600036621093750e+00 2.340270042419433594e+00 1.010849952697753906e+01 1.452740001678466797e+01 7.944700121879577637e-01 1.005510044097900391e+01 8.670579910278320312e+00 6.536960124969482422e+00 8.635629653930664062e+00 7.211190223693847656e+00 6.245989799499511719e+00 6.496300220489501953e+00 1.021990013122558594e+01 5.964680194854736328e+00 1.121599960327148438e+01 3.210920095443725586e+00 7.529900074005126953e+00 1.116209983825683594e+01 3.130019903182983398e+00 1.182979965209960938e+01 7.134799957275390625e+00 6.811170101165771484e+00 5.946680068969726562e+00 5.208789825439453125e+00 1.105620002746582031e+01 5.379859924316406250e+00 9.678540229797363281e+00 3.060250043869018555e+00 8.553870201110839844e+00 1.080640029907226562e+01 3.441550016403198242e+00 1.037370014190673828e+01 4.710259914398193359e+00 6.865960121154785156e+00 1.245619964599609375e+01 4.735219955444335938e+00 1.335280036926269531e+01 8.898819923400878906e+00 1.124559974670410156e+01 8.817999839782714844e+00 9.932669639587402344e+00 1.139999961853027344e+01 1.867670059204101562e+00 1.357289981842041016e+01 5.150030136108398438e+00 6.491640090942382812e+00 1.103310012817382812e+01 3.262700080871582031e+00 1.334490013122558594e+01 9.317640304565429688e+00 1.225139999389648438e+01 9.626600265502929688e+00 8.999019622802734375e+00 1.076029968261718750e+01 8.614199757575988770e-01 1.237940025329589844e+01 5.396609783172607422e+00 6.631800174713134766e+00 2.627890110015869141e+00 3.650029897689819336e+00 1.719409942626953125e+00 3.779759883880615234e+00 3.014799952507019043e-01 5.676239967346191406e+00 4.690629959106445312e+00 5.265490055084228516e+00 1.338619995117187500e+01 4.374790191650390625e+00 5.241970062255859375e+00 7.194900035858154297e+00 4.404260158538818359e+00 4.350019931793212891e+00 2.278090000152587891e+00 5.092490196228027344e+00 1.841060042381286621e+00 5.774320125579833984e+00 3.564409971237182617e+00 1.388430023193359375e+01 3.085129976272583008e+00 2.991719961166381836e+00 2.913409948348999023e+00 8.413550376892089844e+00 3.872910022735595703e+00 4.348939895629882812e+00 1.235219955444335938e+01 2.156820058822631836e+00 4.972699880599975586e-01 2.447560071945190430e+00 5.809770107269287109e+00 1.154199981689453125e+01 8.831809997558593750e+00 1.331359958648681641e+01 1.701259970664978027e+00 9.448590278625488281e+00 3.827939987182617188e+00 7.917059898376464844e+00 1.134070014953613281e+01 6.784939765930175781e+00 1.111179947853088379e+00 3.503920078277587891e+00 4.622570037841796875e+00 1.241749954223632812e+01 8.008410453796386719e+00 1.423620033264160156e+01 8.198169708251953125e+00 5.904099941253662109e-01 4.416560173034667969e+00 1.035000038146972656e+01 1.059500026702880859e+01 3.582000017166137695e+00 1.142290019989013672e+01 3.820379972457885742e+00 6.040709972381591797e+00 1.362790012359619141e+01 1.305560016632080078e+01 8.817520141601562500e+00 6.896440029144287109e+00 1.222800016403198242e-01 5.150730133056640625e+00 9.673150062561035156e+00 9.107250213623046875e+00 3.458090066909790039e+00 7.019299864768981934e-01 2.951060056686401367e+00 9.487440109252929688e+00 1.350300025939941406e+01 1.169320011138916016e+01 7.956029891967773438e+00 1.540140032768249512e+00 3.692159891128540039e+00 1.528639984130859375e+01 1.826719999313354492e+00 5.914919853210449219e+00 4.133900105953216553e-01 1.050920009613037109e+01 2.458389997482299805e+00 1.515089988708496094e+01 8.909119606018066406e+00 8.820830345153808594e+00 1.536019992828369141e+01 2.392649888992309570e+00 2.963989973068237305e+00 1.403349971771240234e+01 1.256250023841857910e+00 5.450990200042724609e+00 1.442819976806640625e+01 1.163809967041015625e+01 1.476340055465698242e+00 1.898699998855590820e-01 9.281490325927734375e+00 9.921489715576171875e+00 5.777400135993957520e-01 1.028030014038085938e+01 2.163150072097778320e+00 3.403850078582763672e+00 7.886429786682128906e+00 9.990460395812988281e+00 7.881480216979980469e+00 4.234189987182617188e+00 7.512110233306884766e+00 6.341400146484375000e+00 1.396590042114257812e+01 1.477919960021972656e+01 9.665160179138183594e+00 9.172439575195312500e+00 2.910870075225830078e+00 2.534970045089721680e+00 6.313029766082763672e+00 1.315110015869140625e+01 7.021289825439453125e+00 4.892330169677734375e+00 8.865819931030273438e+00 5.742430210113525391e+00 1.302410030364990234e+01 1.400790023803710938e+01 1.072029972076416016e+01 5.111730098724365234e+00 2.197100073099136353e-01 1.311480045318603516e+01 1.357940006256103516e+01 9.132829666137695312e+00 1.077900028228759766e+01 8.686519622802734375e+00 3.295830011367797852e+00 1.452499961853027344e+01 9.014229774475097656e+00 1.110089969635009766e+01 1.309270000457763672e+01 6.145259857177734375e+00 1.729490041732788086e+00 8.609290122985839844e+00 1.366009998321533203e+01 8.601960182189941406e+00 1.231369972229003906e+01 8.360440254211425781e+00 2.595900058746337891e+00 4.865199923515319824e-01 1.045759963989257812e+01 1.115390014648437500e+01 1.359980010986328125e+01 1.461540031433105469e+01 7.755939960479736328e+00 1.443480014801025391e+01 1.469559955596923828e+01 1.559129953384399414e+00 1.291219997406005859e+01 8.196330070495605469e+00 6.963910102844238281e+00 4.068480014801025391e+00 9.805600047111511230e-01 1.274110031127929688e+01 1.268290042877197266e+01 1.484659957885742188e+01 6.483819961547851562e+00 1.521759986877441406e+01 1.323209953308105469e+01 1.922129988670349121e+00 1.241950035095214844e+01 8.453359603881835938e+00 6.967460155487060547e+00 2.524679899215698242e+00 2.197410106658935547e+00 1.302950000762939453e+01 1.354370021820068359e+01 1.027969956398010254e+00 5.229999776929616928e-03 1.411470031738281250e+01 1.407979965209960938e+01 1.264820003509521484e+01 6.255040168762207031e+00 1.152040004730224609e+01 1.245930004119873047e+01 1.054139995574951172e+01 1.463399982452392578e+01 4.833429813385009766e+00 3.469880104064941406e+00 1.031049966812133789e+00 1.609300017356872559e+00 1.456519985198974609e+01 1.373460006713867188e+01 1.331550025939941406e+01 4.733129978179931641e+00 1.081420040130615234e+01 1.128709983825683594e+01 9.764739990234375000e+00 1.042990016937255859e+01 6.013080120086669922e+00 2.097310066223144531e+00 1.086750030517578125e+01 7.065820217132568359e+00 9.358860015869140625e+00 7.301599979400634766e+00 1.302869987487792969e+01 8.209150314331054688e+00 8.589299917221069336e-01 7.976389884948730469e+00 8.203229904174804688e+00 4.603439807891845703e+00 7.532999664545059204e-02 1.108199977874755859e+01 1.027070045471191406e+01 7.279910087585449219e+00 1.086579990386962891e+01 6.498439788818359375e+00 1.130099967122077942e-01 8.619589805603027344e+00 1.486199975013732910e+00 9.207670211791992188e+00 7.568240165710449219e+00 6.015110015869140625e+00 5.702999830245971680e-01 1.078159999847412109e+01 3.024689912796020508e+00 5.496930122375488281e+00 7.301869869232177734e+00 2.871550083160400391e+00 1.010159969329833984e+01 1.537864971160888672e+01 1.291839981079101562e+01 6.033309936523437500e+00 8.052530288696289062e+00 8.288220405578613281e+00 5.028600096702575684e-01 9.303500175476074219e+00 2.737339973449707031e+00 6.870709896087646484e+00 7.866950035095214844e+00 1.563459992408752441e+00 9.351479530334472656e+00 1.494760036468505859e+01 1.289220046997070312e+01 7.466259956359863281e+00 7.829370021820068359e+00 9.296830177307128906e+00 1.481029987335205078e+01 1.038640022277832031e+01 9.376099586486816406e+00 4.446199893951416016e+00 1.141819953918457031e+01 6.791460037231445312e+00 9.104729652404785156e+00 1.214550018310546875e+01 3.447139978408813477e+00 3.251590013504028320e+00 7.485740184783935547e+00 1.383360004425048828e+01 1.222329998016357422e+01 1.183730030059814453e+01 8.060589790344238281e+00 3.797840118408203125e+00 1.140369987487792969e+01 6.629950046539306641e+00 7.609370231628417969e+00 1.194180011749267578e+01 2.179759979248046875e+00 3.361799955368041992e+00 6.446569919586181641e+00 1.291129970550537109e+01 1.290989971160888672e+01 1.281849956512451172e+01 1.267290019989013672e+01 5.407269954681396484e+00 2.471210002899169922e+00 5.942590236663818359e+00 5.445280075073242188e+00 3.560209989547729492e+00 7.421639919281005859e+00 2.125730037689208984e+00 5.524020195007324219e+00 1.171049976348876953e+01 1.460560035705566406e+01 6.542000174522399902e-01 1.494684028625488281e+01 1.102779984474182129e+00 7.956649780273437500e+00 5.540569782257080078e+00 3.425139904022216797e+00 3.799449920654296875e+00 6.875850200653076172e+00 3.600780010223388672e+00 5.140250205993652344e+00 1.425759983062744141e+01 9.496029853820800781e+00 7.682380199432373047e+00