
     Program PWSCF v.5.4.0 starts on 22Sep2019 at 19: 2:28 

     This program is part of the open-source Quantum ESPRESSO suite
     for quantum simulation of materials; please cite
         "P. Giannozzi et al., J. Phys.:Condens. Matter 21 395502 (2009);
          URL http://www.quantum-espresso.org", 
     in publications or presentations arising from this work. More details at
     http://www.quantum-espresso.org/quote

           HOST :    @host@
           ARCH :    
             CC :    cc
            CPP :    cpp
            F90 :    mpif90
            F77 :    gfortran
         DFLAGS :    -D__GFORTRAN -D__STD_F95 -D__FFTW3 -D__MPI -D__PARA
      BLAS LIBS :    -lopenblas
    LAPACK LIBS :    -lopenblas
       FFT LIBS :    -lfftw3
      MASS LIBS :    

     Parallel version (MPI), running on    28 processors
     R & G space division:  proc/nbgrp/npool/nimage =      28
     Waiting for input...
     Reading input from standard input
Warning: card &IONS ignored
Warning: card / ignored
Warning: card &CELL ignored
Warning: card / ignored

     Current dimensions of program PWSCF are:
     Max number of different atomic species (ntypx) = 10
     Max number of k-points (npk) =  40000
     Max angular momentum in pseudopotentials (lmaxx) =  3

     IMPORTANT: XC functional enforced from input :
     Exchange-correlation      = PBE ( 1  4  3  4 0 0)
     Any further DFT definition will be discarded
     Please, verify this is what you really want


     gamma-point specific algorithms are used

     Subspace diagonalization in iterative solution of the eigenvalue problem:
     a serial algorithm will be used


     Parallelization info
     --------------------
     sticks:   dense  smooth     PW     G-vecs:    dense   smooth      PW
     Min         445     445    110                37558    37558    4694
     Max         448     448    112                37564    37564    4708
     Sum       12517   12517   3125              1051747  1051747  131683
     Tot        6259    6259   1563



     bravais-lattice index     =            1
     lattice parameter (alat)  =      18.8973  a.u.
     unit-cell volume          =    6748.3346 (a.u.)^3
     number of atoms/cell      =            5
     number of atomic types    =            2
     number of electrons       =         8.00
     number of Kohn-Sham states=            4
     kinetic-energy cutoff     =     110.0000  Ry
     charge density cutoff     =     440.0000  Ry
     convergence threshold     =      1.0E-06
     mixing beta               =       0.5000
     number of iterations used =            8  plain     mixing
     Exchange-correlation      = PBE ( 1  4  3  4 0 0)

     celldm(1)=  18.897261  celldm(2)=   0.000000  celldm(3)=   0.000000
     celldm(4)=   0.000000  celldm(5)=   0.000000  celldm(6)=   0.000000

     crystal axes: (cart. coord. in units of alat)
               a(1) = (   1.000000   0.000000   0.000000 )  
               a(2) = (   0.000000   1.000000   0.000000 )  
               a(3) = (   0.000000   0.000000   1.000000 )  

     reciprocal axes: (cart. coord. in units 2 pi/alat)
               b(1) = (  1.000000  0.000000  0.000000 )  
               b(2) = (  0.000000  1.000000  0.000000 )  
               b(3) = (  0.000000  0.000000  1.000000 )  


     PseudoPot. # 1 for  H read from file:
     ../pseudo/H.tm.pbe.UPF
     MD5 check sum: 4b614d66af87240b7a5107bfa527a767
     Pseudo is Norm-conserving, Zval =  1.0
     Generated using "atomic" code by A. Dal Corso  v.5.2.0
     Using radial grid of  929 points,  0 beta functions with: 

     PseudoPot. # 2 for  C read from file:
     ../pseudo/C.tm.pbe.UPF
     MD5 check sum: a4f27fcb9b24331b00ace8e732a7e062
     Pseudo is Norm-conserving, Zval =  4.0
     Generated using "atomic" code by A. Dal Corso  v.5.2.0
     Using radial grid of 1073 points,  1 beta functions with: 
                l(1) =   1

     atomic species   valence    mass     pseudopotential
        H              1.00     1.00000      H( 1.00)
        C              4.00     1.00000      C( 1.00)

     No symmetry found



   Cartesian axes

     site n.     atom                  positions (alat units)
         1           H   tau(   1) = (   0.5402890   0.4163840   0.3729930  )
         2           H   tau(   2) = (   0.3976650   0.4861350   0.4549420  )
         3           H   tau(   3) = (   0.5585860   0.5707030   0.4531750  )
         4           H   tau(   4) = (   0.5381130   0.4245820   0.5459360  )
         5           C   tau(   5) = (   0.5088510   0.4765640   0.4535120  )

     number of k points=     1
                       cart. coord. in units 2pi/alat
        k(    1) = (   0.0000000   0.0000000   0.0000000), wk =   2.0000000

     Dense  grid:   525874 G-vectors     FFT dimensions: ( 128, 128, 128)

     Largest allocated arrays     est. size (Mb)     dimensions
        Kohn-Sham Wavefunctions         0.14 Mb     (    2354,    4)
        NL pseudopotentials             0.11 Mb     (    2354,    3)
        Each V/rho on FFT grid          1.25 Mb     (   81920)
        Each G-vector array             0.14 Mb     (   18782)
        G-vector shells                 0.02 Mb     (    2785)
     Largest temporary arrays     est. size (Mb)     dimensions
        Auxiliary wavefunctions         0.29 Mb     (    2354,   16)
        Each subspace H/S matrix        0.00 Mb     (      16,   16)
        Each <psi_i|beta_j> matrix      0.00 Mb     (       3,    4)
        Arrays for rho mixing          10.00 Mb     (   81920,    8)

     Initial potential from superposition of free atoms
     Check: negative starting charge=   -0.000386

     starting charge    7.99992, renormalised to    8.00000

     negative rho (up, down):  3.862E-04 0.000E+00
     Starting wfc are    8 randomized atomic wfcs

     total cpu time spent up to now is        2.8 secs

     per-process dynamical memory:   430.7 Mb

     Self-consistent Calculation

     iteration #  1     ecut=   110.00 Ry     beta=0.50
     Davidson diagonalization with overlap
     ethr =  1.00E-02,  avg # of iterations =  2.0

     negative rho (up, down):  1.817E-04 0.000E+00

     total cpu time spent up to now is        3.3 secs

     total energy              =     -16.01168621 Ry
     Harris-Foulkes estimate   =     -16.42110400 Ry
     estimated scf accuracy    <       0.72643524 Ry

     iteration #  2     ecut=   110.00 Ry     beta=0.50
     Davidson diagonalization with overlap
     ethr =  9.08E-03,  avg # of iterations =  2.0

     negative rho (up, down):  9.444E-05 0.000E+00

     total cpu time spent up to now is        3.8 secs

     total energy              =     -16.14995030 Ry
     Harris-Foulkes estimate   =     -16.16866325 Ry
     estimated scf accuracy    <       0.04916460 Ry

     iteration #  3     ecut=   110.00 Ry     beta=0.50
     Davidson diagonalization with overlap
     ethr =  6.15E-04,  avg # of iterations =  1.0

     negative rho (up, down):  4.376E-06 0.000E+00

     total cpu time spent up to now is        4.2 secs

     total energy              =     -16.14794009 Ry
     Harris-Foulkes estimate   =     -16.15339044 Ry
     estimated scf accuracy    <       0.01143479 Ry

     iteration #  4     ecut=   110.00 Ry     beta=0.50
     Davidson diagonalization with overlap
     ethr =  1.43E-04,  avg # of iterations =  2.0

     negative rho (up, down):  4.527E-06 0.000E+00

     total cpu time spent up to now is        4.6 secs

     total energy              =     -16.14983458 Ry
     Harris-Foulkes estimate   =     -16.15179917 Ry
     estimated scf accuracy    <       0.00462104 Ry

     iteration #  5     ecut=   110.00 Ry     beta=0.50
     Davidson diagonalization with overlap
     ethr =  5.78E-05,  avg # of iterations =  1.0

     negative rho (up, down):  2.333E-06 0.000E+00

     total cpu time spent up to now is        5.0 secs

     total energy              =     -16.14996708 Ry
     Harris-Foulkes estimate   =     -16.15019796 Ry
     estimated scf accuracy    <       0.00041756 Ry

     iteration #  6     ecut=   110.00 Ry     beta=0.50
     Davidson diagonalization with overlap
     ethr =  5.22E-06,  avg # of iterations =  3.0

     negative rho (up, down):  1.862E-07 0.000E+00

     total cpu time spent up to now is        5.5 secs

     total energy              =     -16.15018574 Ry
     Harris-Foulkes estimate   =     -16.15023781 Ry
     estimated scf accuracy    <       0.00011063 Ry

     iteration #  7     ecut=   110.00 Ry     beta=0.50
     Davidson diagonalization with overlap
     ethr =  1.38E-06,  avg # of iterations =  2.0

     total cpu time spent up to now is        5.9 secs

     End of self-consistent calculation

          k = 0.0000 0.0000 0.0000 ( 65842 PWs)   bands (ev):

   -16.9339  -9.5071  -9.3487  -9.0378

     highest occupied level (ev):    -9.0378

!    total energy              =     -16.15020452 Ry
     Harris-Foulkes estimate   =     -16.15020480 Ry
     estimated scf accuracy    <       0.00000048 Ry

     The total energy is the sum of the following terms:

     one-electron contribution =     -40.61172935 Ry
     hartree contribution      =      21.13590069 Ry
     xc contribution           =      -6.37774882 Ry
     ewald contribution        =       9.70337297 Ry

     convergence has been achieved in   7 iterations

     Forces acting on atoms (Ry/au):

     atom    1 type  1   force =     0.01446067   -0.02969358   -0.05115146
     atom    2 type  1   force =     0.02530648    0.00458672   -0.00535537
     atom    3 type  1   force =     0.01192970    0.04051950   -0.00601985
     atom    4 type  1   force =    -0.00172283    0.00042710    0.00069293
     atom    5 type  2   force =    -0.04997403   -0.01583974    0.06183374

     Total force =     0.113107     Total SCF correction =     0.000422


     entering subroutine stress ...

          total   stress  (Ry/bohr**3)                   (kbar)     P=    0.81
  -0.00000701   0.00000164  -0.00000361         -1.03      0.24     -0.53
   0.00000164   0.00001383   0.00000678          0.24      2.03      1.00
  -0.00000361   0.00000678   0.00000978         -0.53      1.00      1.44


     init_run     :      2.38s CPU      2.43s WALL (       1 calls)
     electrons    :      3.03s CPU      3.11s WALL (       1 calls)
     forces       :      0.89s CPU      0.90s WALL (       1 calls)
     stress       :      1.09s CPU      1.10s WALL (       1 calls)

     Called by init_run:
     wfcinit      :      0.11s CPU      0.11s WALL (       1 calls)
     potinit      :      0.94s CPU      0.94s WALL (       1 calls)

     Called by electrons:
     c_bands      :      1.15s CPU      1.16s WALL (       7 calls)
     sum_band     :      0.37s CPU      0.38s WALL (       7 calls)
     v_of_rho     :      1.53s CPU      1.58s WALL (       8 calls)
     mix_rho      :      0.16s CPU      0.17s WALL (       7 calls)

     Called by c_bands:
     init_us_2    :      0.03s CPU      0.04s WALL (      15 calls)
     regterg      :      1.13s CPU      1.13s WALL (       7 calls)

     Called by sum_band:

     Called by *egterg:
     h_psi        :      1.19s CPU      1.19s WALL (      21 calls)
     g_psi        :      0.01s CPU      0.01s WALL (      13 calls)
     rdiaghg      :      0.00s CPU      0.00s WALL (      20 calls)

     Called by h_psi:
     add_vuspsi   :      0.00s CPU      0.00s WALL (      21 calls)

     General routines
     calbec       :      0.19s CPU      0.19s WALL (      26 calls)
     fft          :      1.46s CPU      1.53s WALL (      95 calls)
     fftw         :      1.01s CPU      1.02s WALL (     102 calls)

     Parallel routines
     fft_scatter  :      0.98s CPU      1.03s WALL (     197 calls)

     PWSCF        :     7.75s CPU         7.94s WALL


   This run was terminated on:  19: 2:36  22Sep2019            

=------------------------------------------------------------------------------=
   JOB DONE.
=------------------------------------------------------------------------------=
