-7.240990000000000482e-01 2.468341000000000118e+00 -3.079499999999999946e-02 -1.079895000000000049e+00 -2.329124000000000194e+00 1.507700000000000012e-02 -8.073879999999999946e-01 -2.363421000000000216e+00 3.889499999999999902e-02 1.527477999999999891e+00 -1.046669999999999962e-01 -8.099999999999999561e-03 5.479239999999999666e-01 1.164970000000000061e+00 -1.730398000000000103e+00 5.359800000000000120e-01 1.163901000000000074e+00 1.715322000000000013e+00
