    6    6    1    1
  0.5000000E+03  0.3000000E-08  0.1000000E-08  0.1000000E-08  0.5000000E-15
  1.000000000000000E-004
  CAR 
 unknown system                          
     16      2     12
 
  0.0000000E+00  0.2500000E+00  0.2500000E+00  0.5000000E+00
    1      -25.147227   1.000000
    2      -24.279039   1.000000
    3      -12.935088   1.000000
    4      -12.061863   1.000000
    5       -9.741799   1.000000
    6       -8.847034   1.000000
    7       -7.541751   1.000000
    8       -6.645770   1.000000
    9       -1.456832   0.000000
   10       -0.456142   0.000000
   11        0.071743   0.000000
   12        0.235213   0.000000
 
  0.0000000E+00 -0.2500000E+00  0.2500000E+00  0.5000000E+00
    1      -25.147227   1.000000
    2      -24.279039   1.000000
    3      -12.935088   1.000000
    4      -12.061863   1.000000
    5       -9.741799   1.000000
    6       -8.847034   1.000000
    7       -7.541751   1.000000
    8       -6.645770   1.000000
    9       -1.456829   0.000000
   10       -0.456181   0.000000
   11        0.072374   0.000000
   12        0.234804   0.000000
