       N       E                     dE             d eps       ncg     rms          rms(c)
DAV:   1     0.151834966577E+03    0.15183E+03   -0.47405E+03    64   0.142E+03
DAV:   2     0.579656446301E+02   -0.93869E+02   -0.93162E+02    80   0.143E+02
DAV:   3    -0.150204715447E+02   -0.72986E+02   -0.70757E+02    80   0.134E+02
DAV:   4    -0.311926277974E+02   -0.16172E+02   -0.16098E+02    68   0.684E+01
DAV:   5    -0.319928944785E+02   -0.80027E+00   -0.80000E+00    72   0.161E+01    0.181E+01
RMM:   6    -0.287106946317E+02    0.32822E+01   -0.13114E+01    64   0.258E+01    0.177E+01
RMM:   7    -0.286731474253E+02    0.37547E-01   -0.12710E+00    76   0.558E+00    0.156E+01
RMM:   8    -0.296054643000E+02   -0.93232E+00   -0.75050E+00    64   0.227E+01    0.122E+01
RMM:   9    -0.284602570223E+02    0.11452E+01   -0.26162E+00    64   0.118E+01    0.437E+00
RMM:  10    -0.284659180228E+02   -0.56610E-02   -0.22117E-01    76   0.273E+00    0.217E+00
RMM:  11    -0.284620089261E+02    0.39091E-02   -0.85072E-03    66   0.524E-01    0.162E+00
RMM:  12    -0.284503412064E+02    0.11668E-01   -0.99043E-02    60   0.186E+00    0.602E-01
RMM:  13    -0.284521330286E+02   -0.17918E-02   -0.96581E-03    75   0.476E-01    0.556E-01
RMM:  14    -0.284556070967E+02   -0.34741E-02   -0.25349E-03    70   0.295E-01    0.664E-01
RMM:  15    -0.284585377941E+02   -0.29307E-02   -0.46455E-03    56   0.504E-01    0.179E-01
RMM:  16    -0.284588089392E+02   -0.27115E-03   -0.10901E-03    72   0.217E-01    0.763E-02
RMM:  17    -0.284606779463E+02   -0.18690E-02   -0.22274E-03    60   0.320E-01    0.218E-01
RMM:  18    -0.284617030974E+02   -0.10252E-02   -0.14714E-03    66   0.226E-01    0.210E-01
RMM:  19    -0.284615327072E+02    0.17039E-03   -0.10476E-03    65   0.211E-01    0.972E-02
RMM:  20    -0.284615029261E+02    0.29781E-04   -0.28690E-03    64   0.331E-01    0.120E-01
RMM:  21    -0.284609237442E+02    0.57918E-03   -0.44547E-04    68   0.126E-01    0.123E-01
RMM:  22    -0.284608635037E+02    0.60240E-04   -0.73233E-05    68   0.543E-02    0.156E-01
RMM:  23    -0.284607534734E+02    0.11003E-03   -0.28435E-04    62   0.997E-02    0.688E-02
RMM:  24    -0.284609844829E+02   -0.23101E-03   -0.52355E-04    66   0.140E-01    0.836E-02
RMM:  25    -0.284611096147E+02   -0.12513E-03   -0.17524E-04    57   0.597E-02    0.111E-01
RMM:  26    -0.284613624012E+02   -0.25279E-03   -0.24787E-05    67   0.270E-02    0.385E-02
RMM:  27    -0.284621913898E+02   -0.82899E-03   -0.13576E-04    54   0.654E-02    0.374E-02
RMM:  28    -0.284626266481E+02   -0.43526E-03   -0.84102E-05    71   0.505E-02    0.364E-02
RMM:  29    -0.284630300005E+02   -0.40335E-03   -0.24110E-05    56   0.290E-02    0.146E-02
RMM:  30    -0.284631422970E+02   -0.11230E-03   -0.12521E-05    72   0.218E-02    0.803E-03
RMM:  31    -0.284632552075E+02   -0.11291E-03   -0.47017E-06    60   0.113E-02    0.216E-03
RMM:  32    -0.284632785743E+02   -0.23367E-04   -0.13273E-06    66   0.649E-03    0.271E-03
RMM:  33    -0.284632967262E+02   -0.18152E-04   -0.25252E-07    60   0.305E-03    0.197E-03
RMM:  34    -0.284633080265E+02   -0.11300E-04   -0.10022E-06    56   0.565E-03    0.232E-03
RMM:  35    -0.284633130549E+02   -0.50284E-05   -0.21083E-07    58   0.283E-03    0.105E-03
RMM:  36    -0.284633147888E+02   -0.17339E-05   -0.80627E-08    58   0.136E-03    0.283E-04
RMM:  37    -0.284633155999E+02   -0.81103E-06   -0.15720E-08    44   0.676E-04    0.180E-04
RMM:  38    -0.284633160487E+02   -0.44882E-06   -0.21430E-08    48   0.722E-04    0.260E-04
RMM:  39    -0.284633161656E+02   -0.11692E-06   -0.73873E-09    46   0.515E-04    0.197E-04
RMM:  40    -0.284633163921E+02   -0.22648E-06   -0.76379E-09    33   0.448E-04    0.110E-04
RMM:  41    -0.284633164629E+02   -0.70834E-07   -0.69752E-09    45   0.492E-04    0.423E-05
RMM:  42    -0.284633165831E+02   -0.12017E-06   -0.72817E-09    40   0.488E-04    0.144E-04
RMM:  43    -0.284633166950E+02   -0.11190E-06   -0.60132E-09    42   0.468E-04    0.345E-04
RMM:  44    -0.284633168012E+02   -0.10619E-06   -0.21686E-09    44   0.265E-04    0.221E-04
RMM:  45    -0.284633170363E+02   -0.23509E-06   -0.44421E-09    36   0.440E-04    0.969E-05
RMM:  46    -0.284633170717E+02   -0.35391E-07   -0.30352E-09    40   0.349E-04    0.844E-05
RMM:  47    -0.284633171294E+02   -0.57721E-07   -0.59572E-10    32   0.187E-04    0.560E-05
RMM:  48    -0.284633171643E+02   -0.34906E-07   -0.36340E-10    30   0.165E-04    0.280E-05
RMM:  49    -0.284633171760E+02   -0.11725E-07   -0.27569E-10    34   0.167E-04    0.547E-05
RMM:  50    -0.284633171831E+02   -0.70736E-08    0.00000E+00    28   0.139E-04
   1 F= -.28463317E+02 E0= -.28463317E+02  d E =-.328556E-12
