
     Program PWSCF v.5.4.0 starts on 22Sep2019 at 18:42:30 

     This program is part of the open-source Quantum ESPRESSO suite
     for quantum simulation of materials; please cite
         "P. Giannozzi et al., J. Phys.:Condens. Matter 21 395502 (2009);
          URL http://www.quantum-espresso.org", 
     in publications or presentations arising from this work. More details at
     http://www.quantum-espresso.org/quote

           HOST :    @host@
           ARCH :    
             CC :    cc
            CPP :    cpp
            F90 :    mpif90
            F77 :    gfortran
         DFLAGS :    -D__GFORTRAN -D__STD_F95 -D__FFTW3 -D__MPI -D__PARA
      BLAS LIBS :    -lopenblas
    LAPACK LIBS :    -lopenblas
       FFT LIBS :    -lfftw3
      MASS LIBS :    

     Parallel version (MPI), running on    28 processors
     R & G space division:  proc/nbgrp/npool/nimage =      28
     Waiting for input...
     Reading input from standard input
Warning: card &IONS ignored
Warning: card / ignored
Warning: card &CELL ignored
Warning: card / ignored

     Current dimensions of program PWSCF are:
     Max number of different atomic species (ntypx) = 10
     Max number of k-points (npk) =  40000
     Max angular momentum in pseudopotentials (lmaxx) =  3

     IMPORTANT: XC functional enforced from input :
     Exchange-correlation      = PBE ( 1  4  3  4 0 0)
     Any further DFT definition will be discarded
     Please, verify this is what you really want


     gamma-point specific algorithms are used

     Subspace diagonalization in iterative solution of the eigenvalue problem:
     a serial algorithm will be used


     Parallelization info
     --------------------
     sticks:   dense  smooth     PW     G-vecs:    dense   smooth      PW
     Min         445     445    110                37558    37558    4694
     Max         448     448    112                37564    37564    4708
     Sum       12517   12517   3125              1051747  1051747  131683
     Tot        6259    6259   1563



     bravais-lattice index     =            1
     lattice parameter (alat)  =      18.8973  a.u.
     unit-cell volume          =    6748.3346 (a.u.)^3
     number of atoms/cell      =            5
     number of atomic types    =            2
     number of electrons       =         8.00
     number of Kohn-Sham states=            4
     kinetic-energy cutoff     =     110.0000  Ry
     charge density cutoff     =     440.0000  Ry
     convergence threshold     =      1.0E-06
     mixing beta               =       0.5000
     number of iterations used =            8  plain     mixing
     Exchange-correlation      = PBE ( 1  4  3  4 0 0)

     celldm(1)=  18.897261  celldm(2)=   0.000000  celldm(3)=   0.000000
     celldm(4)=   0.000000  celldm(5)=   0.000000  celldm(6)=   0.000000

     crystal axes: (cart. coord. in units of alat)
               a(1) = (   1.000000   0.000000   0.000000 )  
               a(2) = (   0.000000   1.000000   0.000000 )  
               a(3) = (   0.000000   0.000000   1.000000 )  

     reciprocal axes: (cart. coord. in units 2 pi/alat)
               b(1) = (  1.000000  0.000000  0.000000 )  
               b(2) = (  0.000000  1.000000  0.000000 )  
               b(3) = (  0.000000  0.000000  1.000000 )  


     PseudoPot. # 1 for  H read from file:
     ../pseudo/H.tm.pbe.UPF
     MD5 check sum: 4b614d66af87240b7a5107bfa527a767
     Pseudo is Norm-conserving, Zval =  1.0
     Generated using "atomic" code by A. Dal Corso  v.5.2.0
     Using radial grid of  929 points,  0 beta functions with: 

     PseudoPot. # 2 for  C read from file:
     ../pseudo/C.tm.pbe.UPF
     MD5 check sum: a4f27fcb9b24331b00ace8e732a7e062
     Pseudo is Norm-conserving, Zval =  4.0
     Generated using "atomic" code by A. Dal Corso  v.5.2.0
     Using radial grid of 1073 points,  1 beta functions with: 
                l(1) =   1

     atomic species   valence    mass     pseudopotential
        H              1.00     1.00000      H( 1.00)
        C              4.00     1.00000      C( 1.00)

     No symmetry found



   Cartesian axes

     site n.     atom                  positions (alat units)
         1           H   tau(   1) = (   0.5460370   0.4220410   0.3633830  )
         2           H   tau(   2) = (   0.4006470   0.4778200   0.4594140  )
         3           H   tau(   3) = (   0.5430210   0.5812410   0.4458600  )
         4           H   tau(   4) = (   0.5474580   0.4254960   0.5427560  )
         5           C   tau(   5) = (   0.5086420   0.4758320   0.4548140  )

     number of k points=     1
                       cart. coord. in units 2pi/alat
        k(    1) = (   0.0000000   0.0000000   0.0000000), wk =   2.0000000

     Dense  grid:   525874 G-vectors     FFT dimensions: ( 128, 128, 128)

     Largest allocated arrays     est. size (Mb)     dimensions
        Kohn-Sham Wavefunctions         0.14 Mb     (    2354,    4)
        NL pseudopotentials             0.11 Mb     (    2354,    3)
        Each V/rho on FFT grid          1.25 Mb     (   81920)
        Each G-vector array             0.14 Mb     (   18782)
        G-vector shells                 0.02 Mb     (    2785)
     Largest temporary arrays     est. size (Mb)     dimensions
        Auxiliary wavefunctions         0.29 Mb     (    2354,   16)
        Each subspace H/S matrix        0.00 Mb     (      16,   16)
        Each <psi_i|beta_j> matrix      0.00 Mb     (       3,    4)
        Arrays for rho mixing          10.00 Mb     (   81920,    8)

     Initial potential from superposition of free atoms
     Check: negative starting charge=   -0.000383

     starting charge    7.99992, renormalised to    8.00000

     negative rho (up, down):  3.834E-04 0.000E+00
     Starting wfc are    8 randomized atomic wfcs

     total cpu time spent up to now is        3.0 secs

     per-process dynamical memory:   430.8 Mb

     Self-consistent Calculation

     iteration #  1     ecut=   110.00 Ry     beta=0.50
     Davidson diagonalization with overlap
     ethr =  1.00E-02,  avg # of iterations =  2.0

     negative rho (up, down):  1.811E-04 0.000E+00

     total cpu time spent up to now is        3.5 secs

     total energy              =     -16.02003278 Ry
     Harris-Foulkes estimate   =     -16.40464870 Ry
     estimated scf accuracy    <       0.68361337 Ry

     iteration #  2     ecut=   110.00 Ry     beta=0.50
     Davidson diagonalization with overlap
     ethr =  8.55E-03,  avg # of iterations =  2.0

     negative rho (up, down):  9.511E-05 0.000E+00

     total cpu time spent up to now is        3.9 secs

     total energy              =     -16.15171034 Ry
     Harris-Foulkes estimate   =     -16.17113120 Ry
     estimated scf accuracy    <       0.05044406 Ry

     iteration #  3     ecut=   110.00 Ry     beta=0.50
     Davidson diagonalization with overlap
     ethr =  6.31E-04,  avg # of iterations =  1.0

     negative rho (up, down):  5.329E-06 0.000E+00

     total cpu time spent up to now is        4.5 secs

     total energy              =     -16.15005771 Ry
     Harris-Foulkes estimate   =     -16.15553933 Ry
     estimated scf accuracy    <       0.01152647 Ry

     iteration #  4     ecut=   110.00 Ry     beta=0.50
     Davidson diagonalization with overlap
     ethr =  1.44E-04,  avg # of iterations =  3.0

     negative rho (up, down):  4.480E-06 0.000E+00

     total cpu time spent up to now is        5.0 secs

     total energy              =     -16.15201476 Ry
     Harris-Foulkes estimate   =     -16.15432622 Ry
     estimated scf accuracy    <       0.00545311 Ry

     iteration #  5     ecut=   110.00 Ry     beta=0.50
     Davidson diagonalization with overlap
     ethr =  6.82E-05,  avg # of iterations =  2.0

     negative rho (up, down):  2.614E-06 0.000E+00

     total cpu time spent up to now is        5.5 secs

     total energy              =     -16.15235465 Ry
     Harris-Foulkes estimate   =     -16.15249648 Ry
     estimated scf accuracy    <       0.00032843 Ry

     iteration #  6     ecut=   110.00 Ry     beta=0.50
     Davidson diagonalization with overlap
     ethr =  4.11E-06,  avg # of iterations =  3.0

     negative rho (up, down):  1.384E-07 0.000E+00

     total cpu time spent up to now is        6.2 secs

     total energy              =     -16.15249698 Ry
     Harris-Foulkes estimate   =     -16.15249605 Ry
     estimated scf accuracy    <       0.00000938 Ry

     iteration #  7     ecut=   110.00 Ry     beta=0.50
     Davidson diagonalization with overlap
     ethr =  1.17E-07,  avg # of iterations =  1.0

     total cpu time spent up to now is        6.6 secs

     total energy              =     -16.15249451 Ry
     Harris-Foulkes estimate   =     -16.15249731 Ry
     estimated scf accuracy    <       0.00000772 Ry

     iteration #  8     ecut=   110.00 Ry     beta=0.50
     Davidson diagonalization with overlap
     ethr =  9.65E-08,  avg # of iterations =  1.0

     total cpu time spent up to now is        7.1 secs

     total energy              =     -16.15249464 Ry
     Harris-Foulkes estimate   =     -16.15249507 Ry
     estimated scf accuracy    <       0.00000130 Ry

     iteration #  9     ecut=   110.00 Ry     beta=0.50
     Davidson diagonalization with overlap
     ethr =  1.63E-08,  avg # of iterations =  2.0

     total cpu time spent up to now is        7.7 secs

     End of self-consistent calculation

          k = 0.0000 0.0000 0.0000 ( 65842 PWs)   bands (ev):

   -16.7984  -9.4331  -9.3408  -8.9256

     highest occupied level (ev):    -8.9256

!    total energy              =     -16.15249485 Ry
     Harris-Foulkes estimate   =     -16.15249494 Ry
     estimated scf accuracy    <       0.00000020 Ry

     The total energy is the sum of the following terms:

     one-electron contribution =     -40.08966172 Ry
     hartree contribution      =      20.86939529 Ry
     xc contribution           =      -6.33010978 Ry
     ewald contribution        =       9.39788136 Ry

     convergence has been achieved in   9 iterations

     Forces acting on atoms (Ry/au):

     atom    1 type  1   force =    -0.01876500    0.01161098    0.02498182
     atom    2 type  1   force =    -0.02003980   -0.00684956   -0.00529401
     atom    3 type  1   force =     0.00081076   -0.01856273    0.01164731
     atom    4 type  1   force =     0.00892598    0.00180607    0.01274323
     atom    5 type  2   force =     0.02906805    0.01199523   -0.04407834

     Total force =     0.072426     Total SCF correction =     0.000106


     entering subroutine stress ...

          total   stress  (Ry/bohr**3)                   (kbar)     P=   -0.57
   0.00000330   0.00000169   0.00000673          0.49      0.25      0.99
   0.00000169  -0.00000937  -0.00000216          0.25     -1.38     -0.32
   0.00000673  -0.00000216  -0.00000546          0.99     -0.32     -0.80


     init_run     :      2.65s CPU      2.65s WALL (       1 calls)
     electrons    :      4.63s CPU      4.70s WALL (       1 calls)
     forces       :      0.89s CPU      0.89s WALL (       1 calls)
     stress       :      1.10s CPU      1.10s WALL (       1 calls)

     Called by init_run:
     wfcinit      :      0.20s CPU      0.20s WALL (       1 calls)
     potinit      :      1.07s CPU      1.07s WALL (       1 calls)

     Called by electrons:
     c_bands      :      2.12s CPU      2.14s WALL (       9 calls)
     sum_band     :      0.50s CPU      0.51s WALL (       9 calls)
     v_of_rho     :      1.93s CPU      1.97s WALL (      10 calls)
     mix_rho      :      0.26s CPU      0.26s WALL (       9 calls)

     Called by c_bands:
     init_us_2    :      0.04s CPU      0.05s WALL (      19 calls)
     regterg      :      2.08s CPU      2.11s WALL (       9 calls)

     Called by sum_band:

     Called by *egterg:
     h_psi        :      2.22s CPU      2.24s WALL (      27 calls)
     g_psi        :      0.01s CPU      0.01s WALL (      17 calls)
     rdiaghg      :      0.00s CPU      0.00s WALL (      26 calls)

     Called by h_psi:
     add_vuspsi   :      0.00s CPU      0.00s WALL (      27 calls)

     General routines
     calbec       :      1.05s CPU      1.05s WALL (      32 calls)
     fft          :      1.97s CPU      2.01s WALL (     117 calls)
     fftw         :      1.21s CPU      1.23s WALL (     124 calls)

     Parallel routines
     fft_scatter  :      1.33s CPU      1.37s WALL (     241 calls)

     PWSCF        :     9.63s CPU         9.74s WALL


   This run was terminated on:  18:42:40  22Sep2019            

=------------------------------------------------------------------------------=
   JOB DONE.
=------------------------------------------------------------------------------=
