    6    6    1    1
  0.5000000E+03  0.3000000E-08  0.1000000E-08  0.1000000E-08  0.5000000E-15
  1.000000000000000E-004
  CAR 
 unknown system                          
     16      2     12
 
  0.0000000E+00  0.2500000E+00  0.2500000E+00  0.5000000E+00
    1      -24.856551   1.000000
    2      -24.564642   1.000000
    3      -12.665495   1.000000
    4      -12.346172   1.000000
    5       -9.428079   1.000000
    6       -9.116949   1.000000
    7       -7.223330   1.000000
    8       -6.899816   1.000000
    9       -1.285547   0.000000
   10       -0.876670   0.000000
   11        0.158744   0.000000
   12        0.327935   0.000000
 
  0.0000000E+00 -0.2500000E+00  0.2500000E+00  0.5000000E+00
    1      -24.856551   1.000000
    2      -24.564642   1.000000
    3      -12.665495   1.000000
    4      -12.346172   1.000000
    5       -9.428079   1.000000
    6       -9.116949   1.000000
    7       -7.223330   1.000000
    8       -6.899816   1.000000
    9       -1.285547   0.000000
   10       -0.876657   0.000000
   11        0.158992   0.000000
   12        0.321581   0.000000
