1.574458694458007812e+01 0.000000000000000000e+00 0.000000000000000000e+00 0.000000000000000000e+00 1.574458694458007812e+01 0.000000000000000000e+00 0.000000000000000000e+00 0.000000000000000000e+00 1.676458740234375000e+01
1.512715148925781250e+01 0.000000000000000000e+00 0.000000000000000000e+00 0.000000000000000000e+00 1.512715148925781250e+01 0.000000000000000000e+00 0.000000000000000000e+00 0.000000000000000000e+00 2.100715255737304688e+01
1.481843471527099609e+01 0.000000000000000000e+00 0.000000000000000000e+00 0.000000000000000000e+00 1.481843471527099609e+01 0.000000000000000000e+00 0.000000000000000000e+00 0.000000000000000000e+00 2.153843498229980469e+01
1.481843471527099609e+01 0.000000000000000000e+00 0.000000000000000000e+00 0.000000000000000000e+00 1.481843471527099609e+01 0.000000000000000000e+00 0.000000000000000000e+00 0.000000000000000000e+00 1.961843490600585938e+01
1.481843471527099609e+01 0.000000000000000000e+00 0.000000000000000000e+00 0.000000000000000000e+00 1.481843471527099609e+01 0.000000000000000000e+00 0.000000000000000000e+00 0.000000000000000000e+00 1.961843490600585938e+01
1.481843471527099609e+01 0.000000000000000000e+00 0.000000000000000000e+00 0.000000000000000000e+00 1.481843471527099609e+01 0.000000000000000000e+00 0.000000000000000000e+00 0.000000000000000000e+00 1.769843482971191406e+01
1.481843471527099609e+01 0.000000000000000000e+00 0.000000000000000000e+00 0.000000000000000000e+00 1.481843471527099609e+01 0.000000000000000000e+00 0.000000000000000000e+00 0.000000000000000000e+00 1.673843383789062500e+01
1.481843471527099609e+01 0.000000000000000000e+00 0.000000000000000000e+00 0.000000000000000000e+00 1.481843471527099609e+01 0.000000000000000000e+00 0.000000000000000000e+00 0.000000000000000000e+00 1.961843490600585938e+01
1.605330467224121094e+01 0.000000000000000000e+00 0.000000000000000000e+00 0.000000000000000000e+00 1.605330467224121094e+01 0.000000000000000000e+00 0.000000000000000000e+00 0.000000000000000000e+00 2.333330345153808594e+01
1.605330467224121094e+01 0.000000000000000000e+00 0.000000000000000000e+00 0.000000000000000000e+00 1.605330467224121094e+01 0.000000000000000000e+00 0.000000000000000000e+00 0.000000000000000000e+00 2.333330345153808594e+01
1.481843471527099609e+01 0.000000000000000000e+00 0.000000000000000000e+00 0.000000000000000000e+00 1.481843471527099609e+01 0.000000000000000000e+00 0.000000000000000000e+00 0.000000000000000000e+00 2.153843498229980469e+01
1.512715148925781250e+01 0.000000000000000000e+00 0.000000000000000000e+00 0.000000000000000000e+00 1.512715148925781250e+01 0.000000000000000000e+00 0.000000000000000000e+00 0.000000000000000000e+00 2.198715209960937500e+01
1.481843471527099609e+01 0.000000000000000000e+00 0.000000000000000000e+00 0.000000000000000000e+00 1.481843471527099609e+01 0.000000000000000000e+00 0.000000000000000000e+00 0.000000000000000000e+00 1.961843490600585938e+01
1.481843471527099609e+01 0.000000000000000000e+00 0.000000000000000000e+00 0.000000000000000000e+00 1.481843471527099609e+01 0.000000000000000000e+00 0.000000000000000000e+00 0.000000000000000000e+00 1.961843490600585938e+01
1.481843471527099609e+01 0.000000000000000000e+00 0.000000000000000000e+00 0.000000000000000000e+00 1.481843471527099609e+01 0.000000000000000000e+00 0.000000000000000000e+00 0.000000000000000000e+00 1.961843490600585938e+01
1.512715148925781250e+01 0.000000000000000000e+00 0.000000000000000000e+00 0.000000000000000000e+00 1.512715148925781250e+01 0.000000000000000000e+00 0.000000000000000000e+00 0.000000000000000000e+00 1.708715248107910156e+01
1.481843471527099609e+01 0.000000000000000000e+00 0.000000000000000000e+00 0.000000000000000000e+00 1.481843471527099609e+01 0.000000000000000000e+00 0.000000000000000000e+00 0.000000000000000000e+00 1.961843490600585938e+01
1.481843471527099609e+01 0.000000000000000000e+00 0.000000000000000000e+00 0.000000000000000000e+00 1.481843471527099609e+01 0.000000000000000000e+00 0.000000000000000000e+00 0.000000000000000000e+00 1.961843490600585938e+01
1.481843471527099609e+01 0.000000000000000000e+00 0.000000000000000000e+00 0.000000000000000000e+00 1.481843471527099609e+01 0.000000000000000000e+00 0.000000000000000000e+00 0.000000000000000000e+00 1.673843383789062500e+01
1.543586921691894531e+01 0.000000000000000000e+00 0.000000000000000000e+00 0.000000000000000000e+00 1.543586921691894531e+01 0.000000000000000000e+00 0.000000000000000000e+00 0.000000000000000000e+00 2.143586921691894531e+01
1.481843471527099609e+01 0.000000000000000000e+00 0.000000000000000000e+00 0.000000000000000000e+00 1.481843471527099609e+01 0.000000000000000000e+00 0.000000000000000000e+00 0.000000000000000000e+00 1.961843490600585938e+01
1.481843471527099609e+01 0.000000000000000000e+00 0.000000000000000000e+00 0.000000000000000000e+00 1.481843471527099609e+01 0.000000000000000000e+00 0.000000000000000000e+00 0.000000000000000000e+00 1.961843490600585938e+01
1.481843471527099609e+01 0.000000000000000000e+00 0.000000000000000000e+00 0.000000000000000000e+00 1.481843471527099609e+01 0.000000000000000000e+00 0.000000000000000000e+00 0.000000000000000000e+00 1.961843490600585938e+01
1.481843471527099609e+01 0.000000000000000000e+00 0.000000000000000000e+00 0.000000000000000000e+00 1.481843471527099609e+01 0.000000000000000000e+00 0.000000000000000000e+00 0.000000000000000000e+00 1.961843490600585938e+01
1.605330467224121094e+01 0.000000000000000000e+00 0.000000000000000000e+00 0.000000000000000000e+00 1.605330467224121094e+01 0.000000000000000000e+00 0.000000000000000000e+00 0.000000000000000000e+00 2.333330345153808594e+01
1.543586921691894531e+01 0.000000000000000000e+00 0.000000000000000000e+00 0.000000000000000000e+00 1.543586921691894531e+01 0.000000000000000000e+00 0.000000000000000000e+00 0.000000000000000000e+00 1.943586921691894531e+01
1.481843471527099609e+01 0.000000000000000000e+00 0.000000000000000000e+00 0.000000000000000000e+00 1.481843471527099609e+01 0.000000000000000000e+00 0.000000000000000000e+00 0.000000000000000000e+00 1.961843490600585938e+01
