-4.843030452728271484e+00 8.531538009643554688e+00 4.335206508636474609e+00 8.531538009643554688e+00 1.937009930610656738e+00 -2.193749189376831055e+00 4.335206508636474609e+00 -2.193749189376831055e+00 -6.036046504974365234e+00
-4.510538101196289062e+00 5.870773792266845703e-01 -7.904227733612060547e+00 5.870773792266845703e-01 -2.408556556701660156e+01 -1.905278801918029785e+00 -7.904227733612060547e+00 -1.905278801918029785e+00 -9.139259338378906250e+00
1.240283679962158203e+01 -1.782314109802246094e+01 1.315682232379913330e-01 -1.782314109802246094e+01 3.815015029907226562e+01 -5.687898159027099609e+00 1.315682232379913330e-01 -5.687898159027099609e+00 1.617049407958984375e+01
-1.920013427734375000e+01 8.003403663635253906e+00 -1.833224296569824219e-01 8.003403663635253906e+00 -1.734572172164916992e+00 -3.504313945770263672e+00 -1.833224296569824219e-01 -3.504313945770263672e+00 -4.241174316406250000e+01
-2.455461120605468750e+01 2.246466159820556641e+00 7.952020645141601562e+00 2.246466159820556641e+00 -1.397638607025146484e+01 -1.441197097301483154e-01 7.952020645141601562e+00 -1.441197097301483154e-01 -3.360541152954101562e+01
1.718484687805175781e+01 -1.975114226341247559e+00 -1.143427276611328125e+01 -1.975114226341247559e+00 1.773498535156250000e+01 1.705308556556701660e+00 -1.143427276611328125e+01 1.705308556556701660e+00 1.706528663635253906e+01
1.593231391906738281e+01 -2.766663953661918640e-02 -1.448896884918212891e+00 -2.766663953661918640e-02 1.084197330474853516e+01 -3.149339914321899414e+00 -1.448896884918212891e+00 -3.149339914321899414e+00 -5.811141133308410645e-01
-1.312433147430419922e+01 -3.887064695358276367e+00 -1.382769584655761719e+00 -3.887064695358276367e+00 2.584340810775756836e+00 -3.674380540847778320e+00 -1.382769584655761719e+00 -3.674380540847778320e+00 -1.310136985778808594e+01
7.902910709381103516e+00 -1.304816484451293945e+00 -6.372117996215820312e+00 -1.304816484451293945e+00 3.800917148590087891e+00 6.873462200164794922e+00 -6.372117996215820312e+00 6.873462200164794922e+00 -7.101240158081054688e+00
-4.847217082977294922e+00 1.037840652465820312e+01 4.574401378631591797e+00 1.037840652465820312e+01 -5.832829475402832031e+00 -1.115057706832885742e+00 4.574401378631591797e+00 -1.115057706832885742e+00 1.444320678710937500e+00
1.323407554626464844e+01 -1.921214866638183594e+01 -6.477927207946777344e+00 -1.921214866638183594e+01 3.779051589965820312e+01 1.111761927604675293e+00 -6.477927207946777344e+00 1.111761927604675293e+00 9.337477684020996094e+00
-3.048763275146484375e+01 -3.005907535552978516e+00 1.540854167938232422e+01 -3.005907535552978516e+00 -4.040326476097106934e-01 6.603292942047119141e+00 1.540854167938232422e+01 6.603292942047119141e+00 -1.049197387695312500e+01
-1.387724971771240234e+01 9.589634895324707031e+00 -2.311535120010375977e+00 9.589634895324707031e+00 1.888339424133300781e+01 -6.733187198638916016e+00 -2.311535120010375977e+00 -6.733187198638916016e+00 -1.021959424018859863e+00
-5.768499374389648438e+00 -9.215111732482910156e+00 -1.327756643295288086e+00 -9.215111732482910156e+00 -2.677811622619628906e+01 3.229464769363403320e+00 -1.327756643295288086e+00 3.229464769363403320e+00 -3.489662551879882812e+01
1.838055992126464844e+01 2.295455932617187500e+00 3.214192390441894531e-01 2.295455932617187500e+00 -8.818190574645996094e+00 2.118210315704345703e+00 3.214192390441894531e-01 2.118210315704345703e+00 -2.619012832641601562e+01
8.864473342895507812e+00 2.100440025329589844e+00 -4.339767456054687500e+00 2.100440025329589844e+00 -6.468614578247070312e+00 -2.664286375045776367e+00 -4.339767456054687500e+00 -2.664286375045776367e+00 -8.467897415161132812e+00
2.386353683471679688e+01 -8.973146438598632812e+00 -3.770478248596191406e+00 -8.973146438598632812e+00 -1.784056854248046875e+01 -3.676881074905395508e+00 -3.770478248596191406e+00 -3.676881074905395508e+00 -8.407503128051757812e+00
-2.250020599365234375e+01 1.065668487548828125e+01 2.397979974746704102e+00 1.065668487548828125e+01 -1.789585113525390625e+00 -1.517505288124084473e+00 2.397979974746704102e+00 -1.517505288124084473e+00 -2.183956909179687500e+01
8.640663146972656250e+00 7.155840873718261719e+00 6.482757091522216797e+00 7.155840873718261719e+00 1.884960746765136719e+01 -1.645453929901123047e+00 6.482757091522216797e+00 -1.645453929901123047e+00 -1.085227394104003906e+01
3.331264972686767578e+00 -7.245963573455810547e+00 -4.860299587249755859e+00 -7.245963573455810547e+00 9.061040878295898438e-01 -1.087411022186279297e+01 -4.860299587249755859e+00 -1.087411022186279297e+01 -1.058736610412597656e+01
-1.466923618316650391e+01 -5.053869724273681641e+00 -2.315675735473632812e+00 -5.053869724273681641e+00 -9.127161026000976562e+00 2.469932317733764648e+00 -2.315675735473632812e+00 2.469932317733764648e+00 -3.811829376220703125e+01
-1.752745819091796875e+01 -1.574561715126037598e+00 6.064670562744140625e+00 -1.574561715126037598e+00 -7.612452030181884766e+00 -6.536151885986328125e+00 6.064670562744140625e+00 -6.536151885986328125e+00 -2.417145729064941406e+01
2.340869903564453125e-01 6.122049808502197266e+00 3.747273921966552734e+00 6.122049808502197266e+00 7.998563766479492188e+00 -2.619053125381469727e+00 3.747273921966552734e+00 -2.619053125381469727e+00 -1.546985340118408203e+01
3.239924240112304688e+01 2.263916492462158203e+00 2.837921619415283203e+00 2.263916492462158203e+00 4.350043869018554688e+01 -2.632416486740112305e+00 2.837921619415283203e+00 -2.632416486740112305e+00 3.709482955932617188e+01
-6.969130039215087891e+00 -8.971129655838012695e-01 2.318464517593383789e+00 -8.971129655838012695e-01 -1.505673313140869141e+01 -1.078652262687683105e+00 2.318464517593383789e+00 -1.078652262687683105e+00 1.567498683929443359e+00
1.873816680908203125e+01 3.621653020381927490e-01 -6.404805183410644531e+00 3.621653020381927490e-01 2.816189193725585938e+01 1.960837543010711670e-01 -6.404805183410644531e+00 1.960837543010711670e-01 2.487292289733886719e+00
1.200009059906005859e+01 6.786882400512695312e+00 1.630838274955749512e+00 6.786882400512695312e+00 1.049035549163818359e+00 5.188659191131591797e+00 1.630838274955749512e+00 5.188659191131591797e+00 -4.354082584381103516e+00
