LAMMPS data file via write_data, version 2 Jun 2022, timestep = 0

432 atoms
2 atom types

0 20.058502458063273 xlo xhi
0 20.058502458063273 ylo yhi
0 6.686167486021091 zlo zhi

Masses

1 15.999
2 1.00784

Atoms # atomic

1 1 19.993402458063272 0 0 -1 0 0
2 2 0.5208 19.523302458063274 6.1509674860210914 0 -1 -1
3 2 0.5208 0.5352 0.5352 0 0 0
4 1 3.3431 3.3431 0.0651 0 0 0
5 2 3.8783 2.8078 6.165367486021091 0 0 -1
6 2 2.8078 3.8783 6.165367486021091 0 0 -1
7 1 3.3431 0.0651 3.3431 0 0 0
8 2 3.8783 19.537702458063272 2.8078 0 -1 0
9 2 2.8078 19.537702458063272 3.8783 0 -1 0
10 1 0 3.4082 3.3431 0 0 0
11 2 19.523302458063274 2.8223 3.8783 -1 0 0
12 2 0.5352 2.8223 2.8078 0 0 0
13 1 1.6064 1.6715 1.6715 0 0 0
14 2 2.1923 1.1363 2.2068 0 0 0
15 2 2.1923 2.2068 1.1363 0 0 0
16 1 5.0146 5.0146 1.7366 0 0 0
17 2 4.4794 4.4794 1.1508 0 0 0
18 2 5.5499 5.5499 1.1508 0 0 0
19 1 5.0146 1.6715 5.0797 0 0 0
20 2 5.5499 2.2068 4.4938 0 0 0
21 2 4.4794 1.1363 4.4938 0 0 0
22 1 1.7366 5.0146 5.0146 0 0 0
23 2 1.1508 5.5499 5.5499 0 0 0
24 2 1.1508 4.4794 4.4794 0 0 0
25 1 3.278 0 0 0 0 0
26 2 3.8639 0.5352 0.5352 0 0 0
27 2 3.8639 19.523302458063274 6.1509674860210914 0 -1 -1
28 1 0 3.3431 0.0651 0 0 0
29 2 19.523302458063274 3.8783 6.165367486021091 -1 0 -1
30 2 0.5352 2.8078 6.165367486021091 0 0 -1
31 1 0 0 3.4082 0 0 0
32 2 0.5352 19.523302458063274 2.8223 0 -1 0
33 2 19.523302458063274 0.5352 2.8223 -1 0 0
34 1 3.4082 3.3431 3.3431 0 0 0
35 2 2.8223 2.8078 3.8783 0 0 0
36 2 2.8223 3.8783 2.8078 0 0 0
37 1 5.0146 1.6064 1.6715 0 0 0
38 2 5.5499 2.1923 1.1363 0 0 0
39 2 4.4794 2.1923 2.2068 0 0 0
40 1 1.7366 5.0146 1.6715 0 0 0
41 2 1.1508 5.5499 2.2068 0 0 0
42 2 1.1508 4.4794 1.1363 0 0 0
43 1 1.6715 1.7366 5.0146 0 0 0
44 2 1.1363 1.1508 4.4794 0 0 0
45 2 2.2068 1.1508 5.5499 0 0 0
46 1 5.0797 5.0146 5.0146 0 0 0
47 2 4.4938 5.5499 5.5499 0 0 0
48 2 4.4938 4.4794 4.4794 0 0 0
49 1 6.6862 0 0.0651 0 0 0
50 2 7.2214 19.523302458063274 6.165367486021091 0 -1 -1
51 2 6.1509 0.5352 6.165367486021091 0 0 -1
52 1 10.0293 3.278 0 0 0 0
53 2 9.494 3.8639 6.1509674860210914 0 0 -1
54 2 10.5645 3.8639 0.5352 0 0 0
55 1 10.0293 19.993402458063272 3.3431 0 -1 0
56 2 9.494 0.5208 2.8078 0 0 0
57 2 10.5645 0.5208 3.8783 0 0 0
58 1 6.6862 3.3431 3.4082 0 0 0
59 2 6.1509 3.8783 2.8223 0 0 0
60 2 7.2214 2.8078 2.8223 0 0 0
61 1 8.3577 1.6715 1.7366 0 0 0
62 2 7.8225 1.1363 1.1508 0 0 0
63 2 8.893 2.2068 1.1508 0 0 0
64 1 11.6357 5.0146 1.6715 0 0 0
65 2 12.2216 4.4794 2.2068 0 0 0
66 2 12.2216 5.5499 1.1363 0 0 0
67 1 11.7008 1.6715 4.9495 0 0 0
68 2 11.1655 2.2068 5.5354 0 0 0
69 2 12.236 1.1363 5.5354 0 0 0
70 1 8.3577 5.0146 5.0797 0 0 0
71 2 8.893 5.5499 4.4938 0 0 0
72 2 7.8225 4.4794 4.4938 0 0 0
73 1 10.0293 0.0651 0 0 0 0
74 2 10.5645 19.537702458063272 6.1509674860210914 0 -1 -1
75 2 9.494 19.537702458063272 0.5352 0 -1 0
76 1 6.6862 3.278 0 0 0 0
77 2 6.1509 3.8639 6.1509674860210914 0 0 -1
78 2 7.2214 3.8639 0.5352 0 0 0
79 1 6.6862 19.993402458063272 3.3431 0 -1 0
80 2 6.1509 0.5208 2.8078 0 0 0
81 2 7.2214 0.5208 3.8783 0 0 0
82 1 10.0943 3.3431 3.3431 0 0 0
83 2 9.5085 2.8078 3.8783 0 0 0
84 2 9.5085 3.8783 2.8078 0 0 0
85 1 11.7659 1.6715 1.6715 0 0 0
86 2 11.18 1.1363 1.1363 0 0 0
87 2 11.18 2.2068 2.2068 0 0 0
88 1 8.3577 4.9495 1.6715 0 0 0
89 2 8.893 5.5354 1.1363 0 0 0
90 2 7.8225 5.5354 2.2068 0 0 0
91 1 8.3577 1.6715 4.9495 0 0 0
92 2 8.893 1.1363 5.5354 0 0 0
93 2 7.8225 2.2068 5.5354 0 0 0
94 1 11.7008 5.0797 5.0146 0 0 0
95 2 12.236 4.4938 5.5499 0 0 0
96 2 11.1655 4.4938 4.4794 0 0 0
97 1 13.3723 0.0651 0 0 0 0
98 2 13.9076 19.537702458063272 6.1509674860210914 0 -1 -1
99 2 12.8371 19.537702458063272 0.5352 0 -1 0
100 1 16.7154 3.3431 6.621067486021091 0 0 -1
101 2 16.1802 2.8078 0.5208 0 0 0
102 2 17.2507 3.8783 0.5208 0 0 0
103 1 16.7154 19.993402458063272 3.3431 0 -1 0
104 2 16.1802 0.5208 2.8078 0 0 0
105 2 17.2507 0.5208 3.8783 0 0 0
106 1 13.3723 3.3431 3.278 0 0 0
107 2 12.8371 2.8078 3.8639 0 0 0
108 2 13.9076 3.8783 3.8639 0 0 0
109 1 15.109 1.6715 1.6715 0 0 0
110 2 14.5231 1.1363 1.1363 0 0 0
111 2 14.5231 2.2068 2.2068 0 0 0
112 1 18.3219 5.0146 1.6715 0 0 0
113 2 18.9077 5.5499 1.1363 0 0 0
114 2 18.9077 4.4794 2.2068 0 0 0
115 1 18.387 1.6715 4.9495 0 0 0
116 2 17.8517 2.2068 5.5354 0 0 0
117 2 18.9222 1.1363 5.5354 0 0 0
118 1 14.9788 5.0146 5.0146 0 0 0
119 2 15.5647 4.4794 5.5499 0 0 0
120 2 15.5647 5.5499 4.4794 0 0 0
121 1 16.7805 0 0 0 0 0
122 2 16.1946 0.5352 6.1509674860210914 0 0 -1
123 2 16.1946 19.523302458063274 0.5352 0 -1 0
124 1 13.3723 3.4082 0 0 0 0
125 2 12.8371 2.8223 0.5352 0 0 0
126 2 13.9076 2.8223 6.1509674860210914 0 0 -1
127 1 13.3723 0 3.4082 0 0 0
128 2 12.8371 0.5352 2.8223 0 0 0
129 2 13.9076 19.523302458063274 2.8223 0 -1 0
130 1 16.6503 3.3431 3.3431 0 0 0
131 2 17.2362 3.8783 3.8783 0 0 0
132 2 17.2362 2.8078 2.8078 0 0 0
133 1 18.387 1.6715 1.7366 0 0 0
134 2 17.8517 1.1363 1.1508 0 0 0
135 2 18.9222 2.2068 1.1508 0 0 0
136 1 15.0439 5.0797 1.6715 0 0 0
137 2 15.5791 4.4938 2.2068 0 0 0
138 2 14.5086 4.4938 1.1363 0 0 0
139 1 15.0439 1.6715 5.0797 0 0 0
140 2 14.5086 1.1363 4.4938 0 0 0
141 2 15.5791 2.2068 4.4938 0 0 0
142 1 18.387 4.9495 5.0146 0 0 0
143 2 17.8517 5.5354 5.5499 0 0 0
144 2 18.9222 5.5354 4.4794 0 0 0
145 1 0 6.6211 0 0 0 0
146 2 19.523302458063274 7.207 6.1509674860210914 -1 0 -1
147 2 0.5352 7.207 0.5352 0 0 0
148 1 3.4082 10.0293 0 0 0 0
149 2 2.8223 10.5645 6.1509674860210914 0 0 -1
150 2 2.8223 9.494 0.5352 0 0 0
151 1 3.3431 6.7513 3.3431 0 0 0
152 2 3.8783 6.1654 2.8078 0 0 0
153 2 2.8078 6.1654 3.8783 0 0 0
154 1 0.0651 10.0293 3.3431 0 0 0
155 2 19.537702458063272 10.5645 2.8078 -1 0 0
156 2 19.537702458063272 9.494 3.8783 -1 0 0
157 1 1.6715 8.3577 1.6064 0 0 0
158 2 2.2068 7.8225 2.1923 0 0 0
159 2 1.1363 8.893 2.1923 0 0 0
160 1 5.0146 11.7659 1.6715 0 0 0
161 2 5.5499 11.18 2.2068 0 0 0
162 2 4.4794 11.18 1.1363 0 0 0
163 1 5.0797 8.3577 5.0146 0 0 0
164 2 4.4938 7.8225 4.4794 0 0 0
165 2 4.4938 8.893 5.5499 0 0 0
166 1 1.6715 11.7008 5.0797 0 0 0
167 2 1.1363 11.1655 4.4938 0 0 0
168 2 2.2068 12.236 4.4938 0 0 0
169 1 3.3431 6.6862 6.621067486021091 0 0 -1
170 2 2.8078 6.1509 0.5208 0 0 0
171 2 3.8783 7.2214 0.5208 0 0 0
172 1 0 9.9642 0 0 0 0
173 2 0.5352 10.55 0.5352 0 0 0
174 2 19.523302458063274 10.55 6.1509674860210914 -1 0 -1
175 1 0 6.6211 3.3431 0 0 0
176 2 0.5352 7.207 3.8783 0 0 0
177 2 19.523302458063274 7.207 2.8078 -1 0 0
178 1 3.3431 10.0943 3.3431 0 0 0
179 2 3.8783 9.5085 2.8078 0 0 0
180 2 2.8078 9.5085 3.8783 0 0 0
181 1 4.9495 8.3577 1.6715 0 0 0
182 2 5.5354 7.8225 2.2068 0 0 0
183 2 5.5354 8.893 1.1363 0 0 0
184 1 1.6064 11.7008 1.6715 0 0 0
185 2 2.1923 11.1655 2.2068 0 0 0
186 2 2.1923 12.236 1.1363 0 0 0
187 1 1.6715 8.3577 4.9495 0 0 0
188 2 2.2068 7.8225 5.5354 0 0 0
189 2 1.1363 8.893 5.5354 0 0 0
190 1 5.0797 11.7008 5.0146 0 0 0
191 2 4.4938 11.1655 4.4794 0 0 0
192 2 4.4938 12.236 5.5499 0 0 0
193 1 6.6862 6.6862 0.0651 0 0 0
194 2 7.2214 6.1509 6.165367486021091 0 0 -1
195 2 6.1509 7.2214 6.165367486021091 0 0 -1
196 1 10.0293 10.0943 0 0 0 0
197 2 10.5645 9.5085 6.1509674860210914 0 0 -1
198 2 9.494 9.5085 0.5352 0 0 0
199 1 10.0293 6.6862 3.4082 0 0 0
200 2 9.494 7.2214 2.8223 0 0 0
201 2 10.5645 6.1509 2.8223 0 0 0
202 1 6.6862 10.0293 3.278 0 0 0
203 2 6.1509 9.494 3.8639 0 0 0
204 2 7.2214 10.5645 3.8639 0 0 0
205 1 8.4228 8.3577 1.6715 0 0 0
206 2 7.8369 7.8225 1.1363 0 0 0
207 2 7.8369 8.893 2.2068 0 0 0
208 1 11.7659 11.7008 1.6715 0 0 0
209 2 11.18 12.236 2.2068 0 0 0
210 2 11.18 11.1655 1.1363 0 0 0
211 1 11.7008 8.4228 5.0146 0 0 0
212 2 11.1655 7.8369 4.4794 0 0 0
213 2 12.236 7.8369 5.5499 0 0 0
214 1 8.3577 11.7008 4.9495 0 0 0
215 2 7.8225 12.236 5.5354 0 0 0
216 2 8.893 11.1655 5.5354 0 0 0
217 1 9.9642 6.6862 0 0 0 0
218 2 10.55 7.2214 0.5352 0 0 0
219 2 10.55 6.1509 6.1509674860210914 0 0 -1
220 1 6.6862 9.9642 0 0 0 0
221 2 6.1509 10.55 6.1509674860210914 0 0 -1
222 2 7.2214 10.55 0.5352 0 0 0
223 1 6.6862 6.6862 3.278 0 0 0
224 2 6.1509 6.1509 3.8639 0 0 0
225 2 7.2214 7.2214 3.8639 0 0 0
226 1 10.0293 10.0293 3.278 0 0 0
227 2 9.494 9.494 3.8639 0 0 0
228 2 10.5645 10.5645 3.8639 0 0 0
229 1 11.7008 8.3577 1.6064 0 0 0
230 2 12.236 7.8225 2.1923 0 0 0
231 2 11.1655 8.893 2.1923 0 0 0
232 1 8.3577 11.7008 1.6064 0 0 0
233 2 7.8225 12.236 2.1923 0 0 0
234 2 8.893 11.1655 2.1923 0 0 0
235 1 8.3577 8.3577 4.9495 0 0 0
236 2 8.893 7.8225 5.5354 0 0 0
237 2 7.8225 8.893 5.5354 0 0 0
238 1 11.7008 11.7008 4.9495 0 0 0
239 2 11.1655 12.236 5.5354 0 0 0
240 2 12.236 11.1655 5.5354 0 0 0
241 1 13.3072 6.6862 0 0 0 0
242 2 13.8931 6.1509 6.1509674860210914 0 0 -1
243 2 13.8931 7.2214 0.5352 0 0 0
244 1 16.7154 9.9642 0 0 0 0
245 2 16.1802 10.55 6.1509674860210914 0 0 -1
246 2 17.2507 10.55 0.5352 0 0 0
247 1 16.7154 6.6862 3.4082 0 0 0
248 2 16.1802 7.2214 2.8223 0 0 0
249 2 17.2507 6.1509 2.8223 0 0 0
250 1 13.4374 10.0293 3.3431 0 0 0
251 2 12.8516 9.494 3.8783 0 0 0
252 2 12.8516 10.5645 2.8078 0 0 0
253 1 15.0439 8.2926 1.6715 0 0 0
254 2 15.5791 8.8785 1.1363 0 0 0
255 2 14.5086 8.8785 2.2068 0 0 0
256 1 18.387 11.6357 1.6715 0 0 0
257 2 17.8517 12.2216 2.2068 0 0 0
258 2 18.9222 12.2216 1.1363 0 0 0
259 1 18.4521 8.3577 5.0146 0 0 0
260 2 17.8662 8.893 5.5499 0 0 0
261 2 17.8662 7.8225 4.4794 0 0 0
262 1 15.109 11.7008 5.0146 0 0 0
263 2 14.5231 11.1655 4.4794 0 0 0
264 2 14.5231 12.236 5.5499 0 0 0
265 1 16.7154 6.6862 6.621067486021091 0 0 -1
266 2 17.2507 7.2214 0.5208 0 0 0
267 2 16.1802 6.1509 0.5208 0 0 0
268 1 13.3723 10.0943 0 0 0 0
269 2 13.9076 9.5085 6.1509674860210914 0 0 -1
270 2 12.8371 9.5085 0.5352 0 0 0
271 1 13.3723 6.7513 3.3431 0 0 0
272 2 12.8371 6.1654 3.8783 0 0 0
273 2 13.9076 6.1654 2.8078 0 0 0
274 1 16.7154 10.0293 3.278 0 0 0
275 2 17.2507 10.5645 3.8639 0 0 0
276 2 16.1802 9.494 3.8639 0 0 0
277 1 18.387 8.2926 1.6715 0 0 0
278 2 17.8517 8.8785 2.2068 0 0 0
279 2 18.9222 8.8785 1.1363 0 0 0
280 1 15.0439 11.7659 1.6715 0 0 0
281 2 14.5086 11.18 1.1363 0 0 0
282 2 15.5791 11.18 2.2068 0 0 0
283 1 15.0439 8.4228 5.0146 0 0 0
284 2 14.5086 7.8369 4.4794 0 0 0
285 2 15.5791 7.8369 5.5499 0 0 0
286 1 18.387 11.6357 5.0146 0 0 0
287 2 17.8517 12.2216 5.5499 0 0 0
288 2 18.9222 12.2216 4.4794 0 0 0
289 1 19.993402458063272 13.3723 0 -1 0 0
290 2 0.5208 13.9076 0.5352 0 0 0
291 2 0.5208 12.8371 6.1509674860210914 0 0 -1
292 1 3.278 16.7154 0 0 0 0
293 2 3.8639 16.1802 6.1509674860210914 0 0 -1
294 2 3.8639 17.2507 0.5352 0 0 0
295 1 3.3431 13.3723 3.4082 0 0 0
296 2 3.8783 12.8371 2.8223 0 0 0
297 2 2.8078 13.9076 2.8223 0 0 0
298 1 0.0651 16.7154 3.3431 0 0 0
299 2 19.537702458063272 16.1802 3.8783 -1 0 0
300 2 19.537702458063272 17.2507 2.8078 -1 0 0
301 1 1.6715 14.9788 1.6715 0 0 0
302 2 1.1363 15.5647 2.2068 0 0 0
303 2 2.2068 15.5647 1.1363 0 0 0
304 1 4.9495 18.387 1.6715 0 0 0
305 2 5.5354 18.9222 1.1363 0 0 0
306 2 5.5354 17.8517 2.2068 0 0 0
307 1 5.0146 15.109 5.0146 0 0 0
308 2 4.4794 14.5231 4.4794 0 0 0
309 2 5.5499 14.5231 5.5499 0 0 0
310 1 1.6715 18.4521 5.0146 0 0 0
311 2 1.1363 17.8662 4.4794 0 0 0
312 2 2.2068 17.8662 5.5499 0 0 0
313 1 3.3431 13.3072 0 0 0 0
314 2 3.8783 13.8931 0.5352 0 0 0
315 2 2.8078 13.8931 6.1509674860210914 0 0 -1
316 1 0 16.7154 0.0651 0 0 0
317 2 19.523302458063274 17.2507 6.165367486021091 -1 0 -1
318 2 0.5352 16.1802 6.165367486021091 0 0 -1
319 1 0 13.3723 3.4082 0 0 0
320 2 19.523302458063274 13.9076 2.8223 -1 0 0
321 2 0.5352 12.8371 2.8223 0 0 0
322 1 3.3431 16.7154 3.4082 0 0 0
323 2 3.8783 16.1802 2.8223 0 0 0
324 2 2.8078 17.2507 2.8223 0 0 0
325 1 4.9495 15.0439 1.6715 0 0 0
326 2 5.5354 15.5791 1.1363 0 0 0
327 2 5.5354 14.5086 2.2068 0 0 0
328 1 1.6715 18.387 1.7366 0 0 0
329 2 2.2068 18.9222 1.1508 0 0 0
330 2 1.1363 17.8517 1.1508 0 0 0
331 1 1.6715 15.0439 5.0797 0 0 0
332 2 2.2068 15.5791 4.4938 0 0 0
333 2 1.1363 14.5086 4.4938 0 0 0
334 1 5.0146 18.387 5.0797 0 0 0
335 2 4.4794 17.8517 4.4938 0 0 0
336 2 5.5499 18.9222 4.4938 0 0 0
337 1 6.6862 13.3723 6.621067486021091 0 0 -1
338 2 6.1509 12.8371 0.5208 0 0 0
339 2 7.2214 13.9076 0.5208 0 0 0
340 1 10.0293 16.6503 0 0 0 0
341 2 10.5645 17.2362 0.5352 0 0 0
342 2 9.494 17.2362 6.1509674860210914 0 0 -1
343 1 10.0293 13.3723 3.278 0 0 0
344 2 10.5645 13.9076 3.8639 0 0 0
345 2 9.494 12.8371 3.8639 0 0 0
346 1 6.6862 16.7805 3.3431 0 0 0
347 2 7.2214 16.1946 2.8078 0 0 0
348 2 6.1509 16.1946 3.8783 0 0 0
349 1 8.2926 15.0439 1.6715 0 0 0
350 2 8.8785 15.5791 1.1363 0 0 0
351 2 8.8785 14.5086 2.2068 0 0 0
352 1 11.7008 18.387 1.6064 0 0 0
353 2 12.236 17.8517 2.1923 0 0 0
354 2 11.1655 18.9222 2.1923 0 0 0
355 1 11.7008 15.0439 4.9495 0 0 0
356 2 12.236 14.5086 5.5354 0 0 0
357 2 11.1655 15.5791 5.5354 0 0 0
358 1 8.3577 18.387 5.0797 0 0 0
359 2 8.893 18.9222 4.4938 0 0 0
360 2 7.8225 17.8517 4.4938 0 0 0
361 1 10.0943 13.3723 0 0 0 0
362 2 9.5085 12.8371 0.5352 0 0 0
363 2 9.5085 13.9076 6.1509674860210914 0 0 -1
364 1 6.6862 16.6503 0 0 0 0
365 2 7.2214 17.2362 0.5352 0 0 0
366 2 6.1509 17.2362 6.1509674860210914 0 0 -1
367 1 6.6862 13.3723 3.278 0 0 0
368 2 6.1509 12.8371 3.8639 0 0 0
369 2 7.2214 13.9076 3.8639 0 0 0
370 1 9.9642 16.7154 3.3431 0 0 0
371 2 10.55 17.2507 3.8783 0 0 0
372 2 10.55 16.1802 2.8078 0 0 0
373 1 11.7008 15.109 1.6715 0 0 0
374 2 12.236 14.5231 2.2068 0 0 0
375 2 11.1655 14.5231 1.1363 0 0 0
376 1 8.3577 18.387 1.6064 0 0 0
377 2 7.8225 18.9222 2.1923 0 0 0
378 2 8.893 17.8517 2.1923 0 0 0
379 1 8.3577 14.9788 5.0146 0 0 0
380 2 7.8225 15.5647 5.5499 0 0 0
381 2 8.893 15.5647 4.4794 0 0 0
382 1 11.6357 18.387 5.0146 0 0 0
383 2 12.2216 17.8517 5.5499 0 0 0
384 2 12.2216 18.9222 4.4794 0 0 0
385 1 13.3723 13.3723 6.621067486021091 0 0 -1
386 2 13.9076 13.9076 0.5208 0 0 0
387 2 12.8371 12.8371 0.5208 0 0 0
388 1 16.6503 16.7154 0 0 0 0
389 2 17.2362 16.1802 6.1509674860210914 0 0 -1
390 2 17.2362 17.2507 0.5352 0 0 0
391 1 16.7805 13.3723 3.3431 0 0 0
392 2 16.1946 12.8371 3.8783 0 0 0
393 2 16.1946 13.9076 2.8078 0 0 0
394 1 13.3723 16.7154 3.278 0 0 0
395 2 13.9076 17.2507 3.8639 0 0 0
396 2 12.8371 16.1802 3.8639 0 0 0
397 1 15.0439 14.9788 1.6715 0 0 0
398 2 14.5086 15.5647 2.2068 0 0 0
399 2 15.5791 15.5647 1.1363 0 0 0
400 1 18.387 18.3219 1.6715 0 0 0
401 2 17.8517 18.9077 2.2068 0 0 0
402 2 18.9222 18.9077 1.1363 0 0 0
403 1 18.387 15.109 5.0146 0 0 0
404 2 17.8517 14.5231 4.4794 0 0 0
405 2 18.9222 14.5231 5.5499 0 0 0
406 1 14.9788 18.387 5.0146 0 0 0
407 2 15.5647 17.8517 5.5499 0 0 0
408 2 15.5647 18.9222 4.4794 0 0 0
409 1 16.7805 13.3723 0 0 0 0
410 2 16.1946 13.9076 6.1509674860210914 0 0 -1
411 2 16.1946 12.8371 0.5352 0 0 0
412 1 13.3723 16.7805 0 0 0 0
413 2 12.8371 16.1946 0.5352 0 0 0
414 2 13.9076 16.1946 6.1509674860210914 0 0 -1
415 1 13.3723 13.4374 3.3431 0 0 0
416 2 13.9076 12.8516 2.8078 0 0 0
417 2 12.8371 12.8516 3.8783 0 0 0
418 1 16.6503 16.7154 3.3431 0 0 0
419 2 17.2362 17.2507 3.8783 0 0 0
420 2 17.2362 16.1802 2.8078 0 0 0
421 1 18.387 15.0439 1.7366 0 0 0
422 2 17.8517 14.5086 1.1508 0 0 0
423 2 18.9222 15.5791 1.1508 0 0 0
424 1 15.0439 18.4521 1.6715 0 0 0
425 2 15.5791 17.8662 2.2068 0 0 0
426 2 14.5086 17.8662 1.1363 0 0 0
427 1 15.0439 15.0439 5.0797 0 0 0
428 2 14.5086 14.5086 4.4938 0 0 0
429 2 15.5791 15.5791 4.4938 0 0 0
430 1 18.387 18.3219 5.0146 0 0 0
431 2 18.9222 18.9077 4.4794 0 0 0
432 2 17.8517 18.9077 5.5499 0 0 0

Velocities

1 0 0 0
2 0 0 0
3 0 0 0
4 0 0 0
5 0 0 0
6 0 0 0
7 0 0 0
8 0 0 0
9 0 0 0
10 0 0 0
11 0 0 0
12 0 0 0
13 0 0 0
14 0 0 0
15 0 0 0
16 0 0 0
17 0 0 0
18 0 0 0
19 0 0 0
20 0 0 0
21 0 0 0
22 0 0 0
23 0 0 0
24 0 0 0
25 0 0 0
26 0 0 0
27 0 0 0
28 0 0 0
29 0 0 0
30 0 0 0
31 0 0 0
32 0 0 0
33 0 0 0
34 0 0 0
35 0 0 0
36 0 0 0
37 0 0 0
38 0 0 0
39 0 0 0
40 0 0 0
41 0 0 0
42 0 0 0
43 0 0 0
44 0 0 0
45 0 0 0
46 0 0 0
47 0 0 0
48 0 0 0
49 0 0 0
50 0 0 0
51 0 0 0
52 0 0 0
53 0 0 0
54 0 0 0
55 0 0 0
56 0 0 0
57 0 0 0
58 0 0 0
59 0 0 0
60 0 0 0
61 0 0 0
62 0 0 0
63 0 0 0
64 0 0 0
65 0 0 0
66 0 0 0
67 0 0 0
68 0 0 0
69 0 0 0
70 0 0 0
71 0 0 0
72 0 0 0
73 0 0 0
74 0 0 0
75 0 0 0
76 0 0 0
77 0 0 0
78 0 0 0
79 0 0 0
80 0 0 0
81 0 0 0
82 0 0 0
83 0 0 0
84 0 0 0
85 0 0 0
86 0 0 0
87 0 0 0
88 0 0 0
89 0 0 0
90 0 0 0
91 0 0 0
92 0 0 0
93 0 0 0
94 0 0 0
95 0 0 0
96 0 0 0
97 0 0 0
98 0 0 0
99 0 0 0
100 0 0 0
101 0 0 0
102 0 0 0
103 0 0 0
104 0 0 0
105 0 0 0
106 0 0 0
107 0 0 0
108 0 0 0
109 0 0 0
110 0 0 0
111 0 0 0
112 0 0 0
113 0 0 0
114 0 0 0
115 0 0 0
116 0 0 0
117 0 0 0
118 0 0 0
119 0 0 0
120 0 0 0
121 0 0 0
122 0 0 0
123 0 0 0
124 0 0 0
125 0 0 0
126 0 0 0
127 0 0 0
128 0 0 0
129 0 0 0
130 0 0 0
131 0 0 0
132 0 0 0
133 0 0 0
134 0 0 0
135 0 0 0
136 0 0 0
137 0 0 0
138 0 0 0
139 0 0 0
140 0 0 0
141 0 0 0
142 0 0 0
143 0 0 0
144 0 0 0
145 0 0 0
146 0 0 0
147 0 0 0
148 0 0 0
149 0 0 0
150 0 0 0
151 0 0 0
152 0 0 0
153 0 0 0
154 0 0 0
155 0 0 0
156 0 0 0
157 0 0 0
158 0 0 0
159 0 0 0
160 0 0 0
161 0 0 0
162 0 0 0
163 0 0 0
164 0 0 0
165 0 0 0
166 0 0 0
167 0 0 0
168 0 0 0
169 0 0 0
170 0 0 0
171 0 0 0
172 0 0 0
173 0 0 0
174 0 0 0
175 0 0 0
176 0 0 0
177 0 0 0
178 0 0 0
179 0 0 0
180 0 0 0
181 0 0 0
182 0 0 0
183 0 0 0
184 0 0 0
185 0 0 0
186 0 0 0
187 0 0 0
188 0 0 0
189 0 0 0
190 0 0 0
191 0 0 0
192 0 0 0
193 0 0 0
194 0 0 0
195 0 0 0
196 0 0 0
197 0 0 0
198 0 0 0
199 0 0 0
200 0 0 0
201 0 0 0
202 0 0 0
203 0 0 0
204 0 0 0
205 0 0 0
206 0 0 0
207 0 0 0
208 0 0 0
209 0 0 0
210 0 0 0
211 0 0 0
212 0 0 0
213 0 0 0
214 0 0 0
215 0 0 0
216 0 0 0
217 0 0 0
218 0 0 0
219 0 0 0
220 0 0 0
221 0 0 0
222 0 0 0
223 0 0 0
224 0 0 0
225 0 0 0
226 0 0 0
227 0 0 0
228 0 0 0
229 0 0 0
230 0 0 0
231 0 0 0
232 0 0 0
233 0 0 0
234 0 0 0
235 0 0 0
236 0 0 0
237 0 0 0
238 0 0 0
239 0 0 0
240 0 0 0
241 0 0 0
242 0 0 0
243 0 0 0
244 0 0 0
245 0 0 0
246 0 0 0
247 0 0 0
248 0 0 0
249 0 0 0
250 0 0 0
251 0 0 0
252 0 0 0
253 0 0 0
254 0 0 0
255 0 0 0
256 0 0 0
257 0 0 0
258 0 0 0
259 0 0 0
260 0 0 0
261 0 0 0
262 0 0 0
263 0 0 0
264 0 0 0
265 0 0 0
266 0 0 0
267 0 0 0
268 0 0 0
269 0 0 0
270 0 0 0
271 0 0 0
272 0 0 0
273 0 0 0
274 0 0 0
275 0 0 0
276 0 0 0
277 0 0 0
278 0 0 0
279 0 0 0
280 0 0 0
281 0 0 0
282 0 0 0
283 0 0 0
284 0 0 0
285 0 0 0
286 0 0 0
287 0 0 0
288 0 0 0
289 0 0 0
290 0 0 0
291 0 0 0
292 0 0 0
293 0 0 0
294 0 0 0
295 0 0 0
296 0 0 0
297 0 0 0
298 0 0 0
299 0 0 0
300 0 0 0
301 0 0 0
302 0 0 0
303 0 0 0
304 0 0 0
305 0 0 0
306 0 0 0
307 0 0 0
308 0 0 0
309 0 0 0
310 0 0 0
311 0 0 0
312 0 0 0
313 0 0 0
314 0 0 0
315 0 0 0
316 0 0 0
317 0 0 0
318 0 0 0
319 0 0 0
320 0 0 0
321 0 0 0
322 0 0 0
323 0 0 0
324 0 0 0
325 0 0 0
326 0 0 0
327 0 0 0
328 0 0 0
329 0 0 0
330 0 0 0
331 0 0 0
332 0 0 0
333 0 0 0
334 0 0 0
335 0 0 0
336 0 0 0
337 0 0 0
338 0 0 0
339 0 0 0
340 0 0 0
341 0 0 0
342 0 0 0
343 0 0 0
344 0 0 0
345 0 0 0
346 0 0 0
347 0 0 0
348 0 0 0
349 0 0 0
350 0 0 0
351 0 0 0
352 0 0 0
353 0 0 0
354 0 0 0
355 0 0 0
356 0 0 0
357 0 0 0
358 0 0 0
359 0 0 0
360 0 0 0
361 0 0 0
362 0 0 0
363 0 0 0
364 0 0 0
365 0 0 0
366 0 0 0
367 0 0 0
368 0 0 0
369 0 0 0
370 0 0 0
371 0 0 0
372 0 0 0
373 0 0 0
374 0 0 0
375 0 0 0
376 0 0 0
377 0 0 0
378 0 0 0
379 0 0 0
380 0 0 0
381 0 0 0
382 0 0 0
383 0 0 0
384 0 0 0
385 0 0 0
386 0 0 0
387 0 0 0
388 0 0 0
389 0 0 0
390 0 0 0
391 0 0 0
392 0 0 0
393 0 0 0
394 0 0 0
395 0 0 0
396 0 0 0
397 0 0 0
398 0 0 0
399 0 0 0
400 0 0 0
401 0 0 0
402 0 0 0
403 0 0 0
404 0 0 0
405 0 0 0
406 0 0 0
407 0 0 0
408 0 0 0
409 0 0 0
410 0 0 0
411 0 0 0
412 0 0 0
413 0 0 0
414 0 0 0
415 0 0 0
416 0 0 0
417 0 0 0
418 0 0 0
419 0 0 0
420 0 0 0
421 0 0 0
422 0 0 0
423 0 0 0
424 0 0 0
425 0 0 0
426 0 0 0
427 0 0 0
428 0 0 0
429 0 0 0
430 0 0 0
431 0 0 0
432 0 0 0
