LAMMPS data file via write_data, version 23 Jun 2022, timestep = 100000

864 atoms
2 atom types

0.8177419867939424 19.240760471269585 xlo xhi
0.8177419867939424 19.240760471269585 ylo yhi
0.2581911992371255 12.54020352222044 zlo zhi

Masses

1 15.999
2 1.00784

Atoms # atomic

448 1 4.146250118560822 2.4286574050469465 2.751019468385593 1 0 0
161 2 3.302183437987549 3.978822473944365 4.6114693621758684 0 1 -1
617 2 5.268195497993143 7.879015529636023 9.654531915667476 -1 -1 1
508 1 1.817140737055073 6.399519458566369 1.7340923625101285 0 0 0
395 2 5.6163033110181475 2.371874785131789 0.6510442523506254 1 0 -1
864 2 1.7723400175141837 0.9814135391453818 5.681056208826171 1 1 0
195 2 3.387353498697255 1.878522182058783 3.1582941716074835 2 1 0
337 1 1.7454085796354786 3.209670788529223 2.590589801125171 0 0 0
542 2 1.2298487994748553 2.423126126795382 2.4424920712476936 1 0 2
791 2 2.182626625442201 6.860470354593582 0.8746114763220961 -1 3 3
224 2 18.330606938686778 5.208261307628199 2.1651800347719448 -2 0 0
61 1 3.0738381065219764 4.746044580406159 4.1368681006648735 0 0 0
53 2 5.43690088127954 4.944773313818396 11.53395529849631 1 1 -2
115 1 4.639936242396217 4.522792428185042 1.897720260289893 1 0 -1
153 2 3.7829307659940348 4.218785951514569 1.2263575759700922 1 1 -1
202 1 3.20970489888637 1.186104136661752 0.35710462688578315 0 0 0
600 2 2.728208743125648 1.5905167662071777 1.03959188372471 -1 0 2
848 2 7.191933235503412 2.3278054319320645 1.9793864371587742 0 0 -2
259 1 6.822245591768878 5.770723586382018 2.443396981040185 0 1 0
367 1 6.629958366943446 2.9428620940238988 1.5577230821138766 -1 0 0
828 2 7.186908209473527 3.7650654799550836 1.2967532207559291 0 2 1
787 1 9.383558560575308 3.1771542643370654 0.4913259532742049 0 1 1
708 2 9.253631259726404 3.849309173509335 4.860992280436968 1 -1 2
324 2 7.176146053047414 2.2159074929840124 3.4520045798262275 1 2 -1
64 1 7.414308449665268 1.294643678528521 3.6490180356119732 0 0 -1
392 2 6.678525492198984 5.319911047677511 3.194450052011901 2 1 -1
149 2 7.16992597098158 19.0154346634966 2.9245067915182257 0 1 1
692 2 9.254264112866107 1.8416751228607329 3.183635114412461 0 1 4
715 1 8.989484407022779 4.221548208969663 2.499220120998553 -1 0 0
437 2 10.498869124226271 2.2414662762421944 1.9371050036777366 0 1 -2
683 2 8.846634791071653 4.760561251030613 3.5180063899006555 0 0 4
811 1 10.156892057688294 2.0317839904857364 2.994543737336381 0 1 -1
375 2 10.758903757485399 18.08722294044597 0.48825494171123107 -1 -1 -1
304 1 8.687985370612015 3.1651293275155807 5.023657682577071 0 0 0
414 2 8.989644345333682 2.2035886266834144 5.3569100692076805 1 0 2
69 2 6.083678748448953 6.33298869571106 2.1375823389025124 0 -1 0
582 2 8.360186436209215 6.271747650376563 3.79284133821754 1 -1 -2
11 2 11.026493961766665 5.522315134739649 11.2381383835184 0 0 -1
481 1 13.059595111429399 3.3634253724694063 0.5419126141612454 0 0 1
165 2 15.56284382447739 5.6478796611021505 11.725290071162544 -1 0 -1
571 1 11.47504508346969 1.7161408451528586 0.8704964627982456 0 1 0
585 2 11.733840771941118 2.516270400393929 0.5088286546854139 1 1 1
292 1 11.267806034559426 4.624368990886813 11.355953625457463 0 0 0
216 2 11.923785466600187 2.3067687539848816 3.3539767759921473 0 0 1
294 2 12.398552293709391 1.093871971142891 2.603535877058958 -2 0 -1
530 2 11.117325410406963 5.790734414456603 4.7976756331468895 -1 -1 -2
383 2 8.95981290342666 18.19967701071112 1.693126726571083 0 -1 -1
474 2 13.518977408297085 1.4529480220147035 0.6744962731583184 -2 0 0
83 2 9.359365163395152 3.4670535465901877 2.885010510899827 0 1 1
211 1 12.858262927089722 2.0271230704252132 2.817056717179081 0 0 0
760 1 14.341462201087118 1.0009691921951198 0.9343024283223481 0 1 1
499 1 17.665055413442396 2.1105131970063424 2.7427334809088126 -1 0 0
263 2 18.187278294978327 1.6303961681246681 2.1455922764017394 0 2 1
287 2 18.070318068194993 2.8363444088167125 4.278098275934836 -2 0 0
816 2 13.544484836356377 18.27220291077606 2.5158194621444707 0 0 3
252 2 1.3422649869036758 2.884136972614147 0.5255923933210985 1 1 4
26 2 15.164871007662393 1.5982932034969684 1.0023024820627897 1 -1 -2
205 1 15.088329859706182 3.1101048508144418 2.0365205653047065 0 0 -1
681 2 17.082758579464652 1.9237708808761715 12.47911577543076 -1 0 -3
855 2 14.718080436081017 3.6604327260607468 11.711019969989223 1 -1 -2
330 2 16.965070309094855 4.480946613152146 1.5597421521011543 0 1 0
250 1 16.96513908666919 3.7854491504691263 0.7883472193765164 0 0 1
815 2 16.68231338221237 19.212966002398296 3.1682502055732957 -1 -1 0
56 2 15.643279222263814 3.717069292061037 2.5509356115182342 0 1 1
840 2 18.578620121462258 18.266581937111695 2.9504791956177794 -1 0 3
232 1 17.797881700148757 18.70285043550188 4.920466219618853 0 0 1
114 2 0.8349316788929237 6.639081341477477 4.160393732400395 1 0 -2
305 2 16.20686226024423 6.4250111321489936 5.8775570222832 0 1 -1
596 2 17.711327229533744 3.241715901141416 0.6697993251564458 2 -1 1
646 1 16.96596171268625 1.086194709219323 0.5004737695574618 0 1 1
95 2 17.236545250798272 18.945366010668756 11.974685873751092 0 0 1
583 1 18.459575844731454 4.816512254050779 2.948473168657961 -1 0 0
339 2 18.907998585986803 9.870452335253397 1.9178498343883488 0 1 -1
283 1 4.139712021954629 10.894072109497046 0.9078828907462047 1 0 0
549 2 18.483880931990058 7.547325042376271 2.238214252803788 2 -2 0
321 2 4.790810244786789 9.276041870083263 11.524628549310329 0 -1 -2
461 2 1.2580558917286315 9.658187063526153 3.340790259532752 -1 -1 0
43 1 3.786379104204899 6.765561444946521 3.2410569747142275 0 -1 0
691 1 1.3116661114669688 9.396798908324547 2.217068227496175 1 0 1
286 1 17.789934871046995 7.815754389679665 2.937490276422684 0 0 -1
566 2 5.744918396368721 8.636333102276964 4.552445328734317 1 0 -1
275 2 1.0552225135724544 4.525348201736518 2.79863792789824 2 1 -2
688 1 1.579504998357368 8.489149787085358 12.412483832929116 1 1 0
71 2 3.2310620365128817 10.546117361397254 0.6974147671716362 1 0 0
462 2 2.3927081052668635 6.607792539450674 3.8998703283349503 0 0 -1
189 2 3.953067151191389 6.101435827435488 3.8442933349523334 0 1 -1
29 2 16.960163873033267 6.43529146780862 2.5643409991988038 0 -1 1
196 1 1.6225303296490474 7.139444448114075 4.435344662533877 0 0 -1
185 2 5.086231597217501 6.265101992390375 11.880249630838549 1 0 0
86 2 1.173990101150113 8.364170891858876 11.636374495005391 -1 0 -2
713 2 5.1836291895969255 7.7919836782110865 1.8454895662658115 0 -1 0
264 2 5.384286118320485 4.948767189102131 0.880159800193 -1 1 0
835 1 5.905005413856715 7.827445116290993 1.4362167698680417 0 1 1
296 2 8.828998323855076 8.804495631817657 2.7734754479872126 0 -1 0
649 1 6.854985703122107 10.405906805644038 1.9378839947225992 0 0 0
538 1 7.74004706378729 8.421423659288765 12.508801282491643 0 -1 -1
94 1 9.248454717368807 9.768446141388644 2.5321837709084725 0 0 0
594 2 7.328293679487221 10.918511224889482 1.3503707089673773 1 1 2
515 2 10.645910644793505 6.682544723688871 1.8579559596240824 1 1 1
735 2 5.860741556096247 10.356363398730624 1.8943922980111927 1 0 0
451 1 8.380727142749464 5.690049816049783 4.5028680716125935 0 0 0
51 2 8.528318318383588 10.059065847968355 2.11325885105293 0 -1 0
725 2 7.9119251449844965 7.761111217284702 1.0185140091549671 -1 2 0
295 1 9.83504851708054 6.897162889027892 2.493030470511647 0 0 0
825 2 3.8513021964529206 7.647053657549561 3.516434262185664 1 1 2
599 2 7.259896411859073 9.709678419340799 4.6810526000319195 0 -1 1
364 1 5.124013333471281 9.19995117574817 4.026711284137521 1 0 0
107 2 9.059447728527795 3.274748446421684 1.4229738560524068 1 2 -1
81 2 5.748063003270296 8.991069649017573 3.387382473069358 1 0 0
493 1 7.87132845358188 7.993719307102253 3.09712804557541 1 0 0
512 2 7.261257317941068 8.492072774156693 2.419406922205595 1 0 2
439 1 13.370746850530464 7.357547661843063 11.437792809066291 -1 0 0
552 2 13.261863217729761 5.569813482049993 5.809051343505151 -1 1 3
631 1 11.678044991022213 6.601728243200406 0.7866227998977285 0 0 -1
458 2 15.511516096107096 5.812009421731209 2.09506799492101 0 -1 -2
21 2 12.636809365786316 3.7549388314648393 1.2463156789699192 -1 0 0
505 1 11.397309359236418 4.279625852356419 2.2450849741420233 0 0 0
183 2 12.230426893738695 4.217963603429823 2.781815726850874 1 -1 1
627 2 14.23519859823112 6.712725512378718 1.3675752656264302 0 1 1
605 2 14.476790193018923 5.66299543317673 0.7380606133028933 -2 1 -1
336 2 11.111562127068526 8.645084141734436 4.475187111333253 0 0 0
503 2 9.867979067318043 7.653366164176651 2.0750087847560805 0 0 3
610 1 13.178765251790125 8.422546460643357 1.372175929678902 -1 0 1
150 2 13.60520088421031 8.522737609515636 2.1935900553087233 2 -1 -1
108 2 12.581708759062067 6.795366742681836 1.0185525134011586 1 0 -1
638 2 13.733679238568154 8.328678162965721 0.6787626328804524 -2 0 1
298 1 15.750199503571402 7.828228902789013 0.5657309521736802 -1 0 0
633 2 16.373586931967527 8.609789398597936 0.5517613538762894 0 1 0
319 1 16.431086033942268 5.820206403934256 1.9891262692128766 -1 1 0
315 2 16.253251449145026 7.102878915934589 0.9071651465887044 -1 0 -1
162 2 16.82785756232044 3.3562946325900445 4.6377536750272315 0 0 2
424 1 15.867378912880065 9.357423181009246 2.9035693499888993 0 0 0
550 1 14.826892821072796 5.218682748937578 11.992241846022097 0 0 -1
763 1 17.649673058444932 9.382717126347806 0.8809357110319962 -1 0 2
104 2 17.962801237772602 9.352361540383523 12.193744882084577 -1 -1 -3
612 2 16.017720821669393 10.149545263642178 3.4894022487125116 -1 1 -1
272 2 17.27979342279403 10.13193906978671 1.3177206328083142 0 0 0
745 1 16.045535540313047 4.455981021914203 4.215872051538945 -1 1 -1
66 2 12.933955188122862 6.432935912962736 2.429772261432701 0 0 1
14 2 15.053073857276257 7.197944532252881 4.585484740599527 0 0 1
469 1 13.990605346974306 5.866893261670091 1.912520439752186 0 -1 0
714 2 17.26175087862628 6.269741863417557 4.2737511669951 0 -1 0
563 2 13.924527672998451 2.9710144166644152 1.043624395387336 1 -2 2
785 2 14.669334566944842 10.387270907923947 12.489949234845525 -2 1 0
450 2 2.6859317552229154 13.53723341906498 4.554793942482103 -1 0 2
795 2 3.726816269641706 11.27805448735076 1.7121466910338246 -1 1 -1
168 2 2.123320469308379 11.949722691229962 0.7734097669519087 0 1 1
220 1 4.800164560205019 12.501150346916832 3.8738426510003414 0 0 0
456 2 4.02779849107325 12.532934874390179 3.4085483241087857 0 1 -1
460 1 1.7800859890023515 13.256273184183353 4.520691085829131 -1 -1 1
88 1 2.810066619181291 12.956422237146763 1.820136718402086 0 0 0
65 2 2.081492277135319 12.361421157272096 4.234186398012601 0 0 0
46 1 18.92612202598793 11.770518156204655 3.4809176597243763 -1 1 1
20 2 1.340410699241403 14.67078824970043 1.586621470683929 0 -1 1
775 1 1.2168192672558078 11.57104876251263 0.3421232041000287 1 0 1
443 2 6.07491493345474 15.47799912231532 4.683362947625794 0 0 0
603 2 0.973287349859087 12.16873194263388 11.92707637383408 0 0 -1
756 2 17.859881896904852 8.81648097432388 4.54063987684882 0 0 0
543 2 17.634970281746043 15.544330801651212 3.267767232720057 0 0 1
213 2 3.596551919456142 13.183417484700225 2.301145993840805 0 0 2
60 2 19.122973804313744 12.500095961762623 2.7760671159737607 -1 -2 -1
716 2 2.877676973621572 13.862606590725141 1.2241421271191506 2 -1 1
198 2 8.113666729033508 11.987746812706076 3.284881465558074 0 1 2
432 2 7.230948445375459 17.144508636323216 3.316583721637803 1 0 1
718 1 6.253708297673212 14.719302725020833 4.0243262769245085 0 0 1
475 1 7.425820972275978 12.49537533898861 2.8839355466863137 0 -1 0
478 1 7.497277196859238 14.156807103661802 0.4298645182678386 0 0 1
82 1 9.696492596642775 12.097391992895997 4.335359635929636 0 0 0
509 2 8.978467541131259 9.854661567152633 4.096733120178733 1 -1 4
854 2 7.733297077726349 7.140055377059323 2.7633031358710793 1 0 -1
675 2 6.573755196889139 13.997312437279293 0.43651316649356664 0 0 1
154 1 8.181937776181478 9.957941514932848 4.775466651162634 0 0 -1
192 2 5.3538472150868675 14.952454356861766 3.4948687799863567 1 0 -1
495 2 9.189338370443334 15.050993476354995 4.351307610956894 -1 0 1
547 1 10.189878482357118 13.016551170316072 1.9227381610302556 0 -1 0
830 2 11.103697005495867 10.644956435126863 2.867924886114675 1 1 -2
729 2 10.603308073506353 12.128668813368522 4.386187525302926 0 0 2
200 2 5.249061237320905 13.173019794864416 3.2456117974117813 0 1 0
807 2 11.693022634970918 8.56233262150555 1.076756570841818 -1 0 -1
413 2 13.976743052285777 11.668246461026069 3.944981838659044 -1 0 -1
630 2 12.280266740923718 11.3088915807847 2.0703938633273786 -1 1 2
574 1 14.519956331239786 11.506376622280039 3.1317655434811384 0 0 0
824 2 15.139857836791903 12.38397783458215 3.295373601152521 0 1 -2
3 2 11.877823861725163 13.042372157506584 3.5022607800760097 1 0 2
105 2 13.080853897815969 13.778825390196857 3.4697342843867958 -1 -1 1
829 1 12.603460306642814 13.223829342197957 4.165556043686614 0 0 0
589 1 11.405558139573317 11.07342196611276 2.16126510910401 0 0 1
207 2 12.556859470177285 11.850915868478701 4.9730900355355345 0 -1 -1
861 2 12.99484445542982 13.58660459889207 0.5284732537226356 0 -1 1
523 1 12.856119950009592 13.438932422797908 1.534798044600867 0 0 2
345 2 13.51621854993118 15.342981071344065 4.864178662056939 -1 -2 -1
73 1 11.336709093670871 8.741756962238496 3.4138953505287652 0 -1 0
34 1 12.188174887456233 11.892657818084972 11.864547817880663 0 0 -2
453 2 11.298178336902124 11.631498152059828 12.013187324342947 0 0 0
502 1 13.734620919903271 10.65967444356937 1.153023200982533 -1 0 2
128 2 15.210617941242466 15.309258748133395 3.7354687861148155 2 -1 1
570 2 13.804737804937048 11.116789881086339 2.104179274942518 0 0 1
256 1 14.818382257063078 14.384312493223014 3.7666596135911194 0 -1 0
317 2 15.418229632144154 9.575670781339257 2.054270112965858 -1 2 1
614 2 16.477484181063026 13.580671048937743 3.7339328060167047 -1 -1 -1
544 1 17.478535391106902 9.72295203910205 4.780919095822711 0 0 -1
577 1 15.090870727975698 12.841174217189787 1.2935588728641723 -1 0 0
746 2 15.22942871259307 12.080714014648576 1.8510018240830823 0 -1 1
832 1 16.419898712819894 12.649968278896049 3.515254150870977 0 0 1
41 2 18.314316571192805 12.026938979897173 4.211649400313912 0 -1 2
727 1 16.384754733141207 15.085669913302736 1.5681562912632845 -1 0 0
642 2 15.51962236286239 14.665627986852277 1.2353513117930763 0 0 2
759 2 18.464603402288944 11.418361675837795 1.324268979906007 -1 0 -1
306 2 17.60709650443016 11.341070075138791 2.3743522255769682 -1 0 -1
113 2 15.999095596759561 12.819251787110995 0.7725630927644475 0 0 -2
667 1 17.49539835690927 11.691560949490668 1.4290498704921264 0 0 1
620 2 16.135055210506188 17.83284986665899 3.2432713978258163 0 0 -2
690 2 14.90996310851047 11.535746724855942 5.612479878420616 0 0 0
312 2 16.112808928482067 12.251973176801522 4.434526937624521 -1 0 -1
793 1 18.409535271013837 14.939879335351097 3.658818957833157 0 0 1
268 1 15.672805205084018 10.335314591862195 12.246843163113653 0 0 -2
365 2 3.6065353469460217 17.514301967225855 0.9613874587643003 1 1 1
221 2 2.246568475488777 15.251583448089242 2.9071258368128583 1 0 0
227 2 4.753141076381231 17.197733068258344 4.607785069531597 1 0 -1
697 1 5.51217202783518 13.485807047867992 1.4544659450384436 1 -1 1
619 1 1.955622955631683 17.031679644880015 4.399494495823931 -1 0 1
2 2 4.806849944361629 15.627975760160208 2.504107831238862 0 0 -1
76 1 4.4587292343684855 16.487175908832135 5.205968514702111 1 0 1
779 2 3.6959430202020283 15.853580111938815 3.4361897130052674 0 1 3
792 2 5.763712540293398 17.520290406046136 0.38856925545064214 2 0 0
757 1 5.328886667619108 19.134105741858846 1.517925130028743 0 0 1
578 2 4.770844413045898 1.7958491352410832 2.4624487477133834 0 -1 -1
500 2 5.119297348981999 14.225769042848144 0.9569867155394101 2 -1 2
17 2 1.8127912166291695 14.553401410720367 5.6356478931382545 0 -1 0
814 1 4.128058020332929 15.125120040093034 2.970335831334513 0 -1 2
765 2 6.491443182557673 15.438265854349154 1.970531458788255 -1 0 0
598 1 1.950724931638099 15.495551034354166 2.1480807207885553 0 0 1
327 2 3.728753145309942 15.93432657815027 5.536859006993685 -1 0 0
732 2 4.28950438995863 1.1842737526562104 0.8031285604992333 -1 1 1
13 1 10.074862115243024 18.408859021078285 11.895508801466171 -1 -1 0
522 2 6.869491137599441 17.65701604109443 4.621307038792751 1 0 1
777 2 10.124099571790381 12.980113559114033 2.923728148990664 0 0 1
74 2 10.40353545349524 13.927773598003517 1.9254348607385694 2 -1 1
492 2 8.123190000348156 1.333611972911203 0.7284064713704386 0 1 0
799 1 5.871421867143189 16.232461343960377 1.646727327552499 0 0 -1
35 2 5.293710500420925 18.199171325795163 1.7960216518743548 -1 -1 -1
77 2 7.780366980450718 14.908371291191466 3.5616458243215936 0 -1 2
680 2 7.765510694341465 17.25491736841323 0.8597165511216149 1 -2 1
334 1 7.625526266880078 0.9129142945872959 12.36433171896703 0 1 -1
84 2 9.212651710632242 18.317082474001197 12.183181357626086 0 1 -2
52 1 6.464690928505746 17.39695168854044 3.800328616059413 0 -1 1
850 1 8.671014628271255 15.082747455169773 3.4486443941171876 1 0 0
671 2 12.21934065608474 15.288115521191123 2.3120476640102976 -1 -2 -2
786 2 4.868750111047733 19.13671900446976 4.3757646605297245 2 1 -2
116 2 6.277917776886261 17.046703462191175 2.1421448982294504 0 0 0
124 1 8.111449014559753 17.88811522737818 1.9204159663148372 0 -1 0
7 1 7.687773706634093 16.64992724884862 12.267795130161502 -1 0 0
743 2 10.62701327206421 1.651565125121151 0.6567588491388199 0 1 1
194 2 11.05622773094041 16.560935345490286 1.2990240095781105 -1 -1 1
267 2 10.862355431286591 16.057222184881457 3.056542369434378 -1 -2 -1
428 2 16.801213486303453 17.43113609684869 10.850065116573926 1 -1 -2
127 1 11.541476025223064 15.43412267602279 3.044120919344225 0 -1 0
628 1 13.933955367108886 15.541676322272883 1.1130843509573385 0 0 0
695 2 14.417204946143453 16.11287126295459 0.46983988863080584 1 1 1
398 2 12.104473960101735 17.516829968883144 1.81852111599766 0 0 -2
857 2 9.437903807037744 15.456173881759511 2.2451066811734695 -1 1 -2
622 1 11.125269405725199 17.377410507341565 1.7420184383233697 0 -1 2
721 1 15.00591135285165 17.138087717841962 12.028079017448011 -1 0 0
120 2 14.05184061223967 16.22118452629512 1.8099860770178011 -2 0 1
350 2 9.849390573177187 18.302008451599974 3.4920736348951116 -1 1 -1
274 1 9.79620332058819 15.400848018430969 1.3194820807907246 0 0 1
803 2 13.716803922144063 17.552714184488273 3.8740794724390875 0 -1 0
6 2 12.315864448693587 15.637907492444056 3.7166597720148107 0 0 -1
632 2 10.762500953156392 15.674408019318877 11.196883776828546 0 1 0
78 2 15.377232842777017 17.87005245173758 0.2869845483775441 0 -1 4
501 2 12.975972592350598 16.80376812630776 12.1173683909275 -2 -3 1
452 2 15.68115825175056 14.833756792322228 10.751692157551492 2 -2 1
241 1 13.71383799565241 17.474840907345182 2.9204821078319743 0 -1 1
27 2 15.401137733690327 17.129245127401845 4.440924243559806 -1 -1 -1
406 1 1.083782960097564 18.80271085398585 1.1870656141540228 1 0 1
38 2 0.9696265110827 16.855413425686145 2.8602893552840842 0 -1 1
705 2 17.325328769839608 19.229589032322657 5.752098546419269 -1 -1 1
750 2 15.68376960562272 16.4619680158739 11.625754856588578 -1 1 1
180 2 2.492365729757668 16.22224787772499 4.985108100531791 0 -1 1
118 1 16.14413705749648 18.6279796881173 2.6371588486127577 0 0 1
580 1 18.525359151026322 17.301160764247562 2.645505303570072 0 0 1
265 1 16.30175306448134 16.342920349624833 4.039574566009511 -1 0 0
379 1 18.17901696439764 16.453018298831466 5.4345391004202295 0 0 0
281 2 18.544962253826178 18.768694451458217 0.9636940461917075 -1 -1 -1
255 2 17.118132221888317 16.97271376401425 4.594226754090842 -1 1 -1
99 2 13.891533233524532 13.613123358260344 1.548881973279548 -2 0 -1
261 2 19.050519429721263 14.997672009409463 2.9388149185547086 0 0 -1
593 2 18.95599077797167 16.227735303008743 4.997000603056995 0 -1 0
159 2 16.448366842274574 18.341527921526527 1.6355067080137775 -1 -3 1
323 2 2.6081621365423455 17.03956857719414 2.0010425667222553 0 -1 2
634 1 1.7580090534416482 1.066888495190694 3.798650650448931 0 0 1
42 2 4.7157233877308435 3.560155843286149 2.2046011576430207 0 0 1
90 2 3.5591150030281242 1.6977730779735283 5.780884167365132 -1 1 -2
236 2 1.3395948173597336 4.5196033800922955 4.214048018538811 2 0 1
129 2 3.863730280849853 3.1465939387366872 6.1572835587011285 -2 1 -1
139 1 4.308977994417373 4.836765699740979 7.057944774182285 1 0 -1
591 2 5.223149901196901 5.092415880034819 6.57628353450826 0 -3 1
369 2 18.64738320897687 5.343721834663522 8.942329489095574 0 1 -1
666 2 3.5400353760091288 4.541721225602503 3.206625215629742 0 0 1
123 2 5.921349152609636 2.7758084976458917 5.66529852600419 0 -1 1
487 1 4.308693566938969 2.81263559893611 8.461688023942628 0 -1 -1
674 2 3.01856488580114 1.6119045206384683 10.79216434198139 0 0 0
421 1 6.210748274512569 2.1846635623690975 6.269184063762165 1 1 -1
151 1 1.839572832516717 3.6425640000909576 7.767189408991922 -1 0 0
361 1 2.4229906078753327 19.03620337943724 8.548361161050739 1 0 0
555 2 18.04662455238129 3.033211278652826 2.747888069492811 0 -1 2
187 1 3.595843259555702 2.5994703800650383 5.453371811341733 0 1 0
719 2 1.1333858428966215 3.492525815926071 8.33394807665642 -1 -1 0
401 2 3.3825731584303056 0.910146757689682 8.724639352056517 1 0 0
47 2 5.185525065219746 3.4010178418299293 3.7917958260519202 -1 0 1
704 2 10.591332243745121 5.9011259514929195 6.496533909626531 1 0 2
30 2 10.181230384535175 3.368875573539378 8.017957008243624 -1 1 0
44 2 11.508394559220553 3.7220654801667346 4.933843100374008 -1 -1 0
299 2 4.89653374379161 2.5172290693779322 9.279737769884441 -1 1 1
449 2 6.424619269156491 4.332658311115624 4.618535426814292 -2 -1 3
226 1 6.118854506789177 3.5701362955612446 3.988252804180673 -1 1 0
386 2 7.2946055748264405 3.8784004592049954 5.836353059471764 0 0 -1
199 1 6.723030111982348 4.581364899130624 6.309532992966212 0 0 0
389 2 11.665026003528768 2.8666497859205404 8.395029431753315 1 0 -2
282 2 6.7064005222858265 5.393590212346002 5.769636972836199 0 -1 0
647 2 4.029827037124441 3.671908913255436 8.709885200501734 0 1 -1
489 2 7.924825143328951 3.681268572202893 7.924764827380644 -1 0 1
394 1 10.219111129661416 4.968699553541589 6.717030578899367 0 1 0
846 2 8.42974494505329 3.2747454281689854 6.424907031953327 -1 0 3
769 1 8.594833153288544 3.1488640400425933 7.546329921731913 -1 0 0
720 2 7.427380696190613 18.650493940414883 6.754207979103633 0 0 1
302 2 14.944058579740258 4.260223552596796 3.9378752990580717 -2 0 -1
388 1 13.659642243874197 4.352995311445458 3.738121228399517 0 0 0
178 1 15.190861860898117 1.6716359200118713 4.2586270373963195 -1 0 0
611 2 14.856868518546184 1.9822518509884997 3.462287854234029 -1 0 0
556 1 10.69365463374154 2.988389914550971 8.770134476136054 0 0 0
652 1 11.375528841069787 2.811474861313873 5.570352521804791 0 0 0
734 2 9.472456410158948 5.627093569406947 7.163194684016928 -2 -1 0
838 1 12.781695681865509 4.448879861072335 6.814059671297378 0 1 1
16 1 13.66283724303159 1.5852433255882128 6.383953735157993 0 0 0
271 1 10.874079889791613 5.036237261743411 4.377961503620695 0 0 0
548 2 13.533125098179363 3.4756222934415506 4.068427815131281 0 1 1
141 2 12.730534329239653 1.1814400607679971 6.301763606082014 0 -2 0
749 2 11.846146014703262 4.2149729175935775 6.783655630957415 -1 2 0
33 2 13.213252425787593 4.150564869060709 7.676395221248131 1 0 -4
440 2 12.17922935059021 2.370067569282008 5.809078081037098 -1 0 1
656 2 15.877559648229497 3.548352684977156 6.086866642701588 0 -1 1
686 2 12.43006486031089 0.8980736490613186 4.306018813897785 -1 -1 -1
447 2 12.159855423813232 6.378415982737736 7.243054039318913 -1 2 0
788 2 11.312490760391745 7.905278313462944 7.70751696351483 0 0 0
677 2 15.152283258528861 2.4828619877601774 5.010416372593795 1 0 2
651 2 14.272266618001952 3.7350448800088776 5.780611305863453 -1 1 0
604 1 1.1246446761023745 3.8312642005784134 4.982457557102525 0 1 0
297 2 17.526305395225044 19.19808622984371 4.270034196772893 1 -1 1
498 2 16.88798336944447 19.23787668648616 7.335384425050764 -1 0 1
328 1 1.1258919106214682 1.479013496263753 6.244402881727383 0 1 0
466 1 15.819083741658305 5.867080297183656 6.530095734175291 -1 -1 0
454 1 17.545078473347722 2.8561810738972846 5.1454752362160185 -1 0 0
711 2 15.386335936354003 5.019598862718464 6.172360121301549 -2 2 -1
464 2 17.979452019614783 3.359897501962102 6.205920398453099 -1 1 0
110 2 1.9334634612819872 3.3151919810153987 5.25142331532286 0 1 -1
661 1 15.005220822143416 3.7003888501761435 6.503958761606829 -1 0 0
707 2 17.04626682748586 3.430038416868459 7.772652218186092 1 0 -1
806 2 2.567549878566509 5.630834331052663 6.677523069010742 0 0 -1
533 2 5.2231736893424845 5.335688155826889 4.577133168307306 1 -1 0
210 2 1.765863614438079 6.816786857140642 2.493813602709981 1 0 1
430 1 2.3911601253861967 6.5262615404549535 6.8089112802309755 1 1 0
844 1 1.7699023338478934 9.53477957221099 4.6948836140813945 1 0 0
650 2 1.3934297945134442 8.649556964256401 5.020045097587718 0 -1 0
201 2 1.3548014346825052 10.179612042330078 5.232712328551251 0 -2 -2
519 2 2.8534608172232625 10.519025106555143 6.179082515442383 0 -1 0
643 1 18.673463165013615 7.949195464316726 6.294678343590327 0 -1 0
459 2 4.548879164351067 5.148896561165743 8.022514529864033 0 1 -4
357 2 1.8106267920824055 8.027523812958258 7.099217101198197 0 1 -2
206 2 1.0040991690737855 12.163219517321423 6.732264881275909 -1 1 -1
581 2 3.605722754029305 6.927836120395259 9.174480794049597 0 3 -1
144 2 2.1227620684496884 6.765341481333511 5.745956086423083 1 0 3
371 2 3.775227332400813 8.30430461353632 5.804553172976115 0 0 0
393 2 3.6611031148004725 5.281336319724757 9.671248678244147 1 1 1
214 1 4.286680406460642 7.398430288119513 6.1587718854335325 1 1 -1
126 2 4.017135246809572 9.50858373955276 9.137478000954655 0 0 -2
468 2 9.877905170898593 5.309602941031105 4.692744583118097 -1 -1 -3
140 2 5.360402332710431 6.57010003344342 5.699012386731163 0 0 0
520 1 5.681889171983662 6.171277531470189 4.65985831525542 0 0 0
363 2 6.352578867983156 11.381049742858377 3.968317513605688 0 0 -1
553 1 7.064142025979964 7.467977172435591 6.228077894987307 0 0 1
435 2 7.867615262482116 7.144889882920025 5.57138195798078 1 1 2
434 2 5.58825068786657 5.706040855225859 9.24379490039609 -1 0 -2
551 2 10.160298479968285 7.615414659902742 6.080153552578928 -1 1 1
685 1 6.00500578848331 9.578010102796577 6.8019739163566895 1 0 0
23 2 9.965661992426101 9.355260458156856 6.736551667792033 0 -1 -1
606 2 5.714818295716758 10.343599767574648 6.253662534802125 0 0 -2
559 1 8.807893966794975 9.32979181667591 7.279750177476152 0 0 0
63 2 8.231305108246532 9.608932048289835 6.398069471988503 0 0 0
618 2 6.646619838377071 8.868527062369846 7.954231509512118 0 1 0
712 1 6.2388543355373205 6.195620018106832 8.474763865163887 1 0 -1
80 2 6.5237906277019215 5.516772487217135 7.900177652499154 1 0 0
382 1 8.534859280615263 6.408517068258089 7.809832359050184 0 0 0
28 1 6.906243826344077 8.541855197442052 8.814572654176338 0 0 -2
557 2 4.195788349845863 7.222815571227743 7.232249324017448 0 0 1
831 2 10.82659705670504 4.992778557709574 2.637180307818643 0 0 4
260 2 11.854677947891629 5.633582916460626 1.1416163360370204 1 1 3
700 1 9.721178462734464 7.917721139236288 5.282785361125112 0 0 1
842 2 13.635172049990938 9.607761852880076 6.588261823409886 0 2 0
790 1 13.841170955507732 7.110815516525154 8.176525090139506 0 1 0
837 2 14.438427328582932 6.841496318524386 7.456874365170062 -1 -1 1
856 1 13.764654510060089 8.425740267201071 3.723025961608786 0 1 0
70 1 12.272779303087505 6.521498447905913 3.0957180140934843 -1 0 -1
653 2 13.877982239255651 8.593407830490147 5.290298676487271 -1 1 2
467 2 13.183184897603638 9.206106211934141 3.903388882043499 -1 -2 0
601 1 13.388558742012988 8.756215113131734 6.056801243048468 0 0 0
567 2 12.64496965592786 6.422403332334084 3.9885080297801214 1 -1 -1
92 2 14.774192010336414 10.969541633956425 7.634260950373995 2 -1 -1
518 2 9.1960846247436 7.026220407968875 5.074653284581041 1 0 -1
351 2 11.830829557617468 7.594243983047169 3.024745100035219 0 -1 0
709 1 11.750347374461462 6.767351813796328 6.3739481487273375 0 0 0
233 2 12.377792088940069 7.492141679237426 6.272496849131996 -1 -1 -4
497 2 15.642182110420308 7.974385888848992 3.4971926556551587 -1 1 1
239 2 15.453745006897215 3.3518332869756686 8.409201964730649 -2 -1 -1
142 1 17.820787915318512 6.092186163239166 5.036042361039409 0 0 0
203 2 18.370384839995957 5.3499454931593755 4.787547280028516 -1 0 -1
135 2 17.37817018086774 8.465763184690301 2.2877802063496433 0 -1 0
130 1 15.765945550324329 7.212398898440143 4.089423866958418 -1 0 -1
311 2 15.99697569589367 5.367945162382421 3.8334282027269833 1 0 0
490 1 15.900399454328726 8.605760839439085 6.4243273434240455 -1 0 0
132 2 14.331610391444979 5.616589439386253 4.938405684841474 0 0 3
208 1 13.658090387520362 6.26573808155399 5.2606595991459155 0 0 0
809 2 17.970611834408217 7.745114032781882 6.7206997756924745 0 0 1
753 2 15.472510284618188 9.118081732934302 7.200975606771034 -1 -1 -1
717 2 16.172690302291574 12.788655016777971 6.819102592741147 1 -1 -1
378 2 18.79032894019693 8.809980995221304 6.780160077269657 0 0 0
55 1 18.865522841764758 5.620564458776646 8.026452359227815 0 0 -1
607 1 17.72786261699312 10.058411389956753 7.736583136577771 -2 -1 0
728 2 14.361025825248836 12.89040581454891 11.204675250929721 -2 -1 2
758 2 18.62240300663224 14.158698747159752 7.386138812465219 -1 0 -1
568 1 3.010666207605556 11.199613159458087 3.2710877119837005 1 0 0
137 2 17.285757308413004 9.570950252963522 5.83479091916223 0 -1 1
176 2 1.999605236782287 11.17466773506981 3.1965772844845026 1 0 2
31 1 6.3405984864263925 11.049222258822057 4.795657010829158 0 0 0
340 1 18.162659527699432 14.321148634398252 6.628716510592224 0 0 0
479 2 3.7920242412465646 13.334001252244356 6.392622315710727 -1 1 2
152 2 18.569673677416965 10.90798821920002 7.272021427318489 0 0 -1