LAMMPS data file via write_data, version 23 Jun 2022, timestep = 100000

1296 atoms
2 atom types

0.8093828382932706 19.249119619770134 xlo xhi
0.8093828382932706 19.249119619770134 ylo yhi
0.23544258770922077 18.675179369185358 zlo zhi

Masses

1 15.999 # O
2 1.00784 # H

Atoms # atomic

72 2 6.724974436617032 2.690854420255773 3.169450707223459 0 0 0
1171 1 6.0804861031018245 2.167054260400632 2.872530748435886 0 1 0
837 2 1.8944915390059358 1.5216958483272767 7.3433377330512535 2 0 0
821 2 5.374021028236387 2.144680984598488 2.135948241034039 0 0 0
139 1 5.640109668630515 5.166427550747184 1.8291198122595678 1 -1 0
424 1 3.8453040978131825 2.9830206296760515 3.8633382610083897 0 1 -1
790 1 4.822431546472544 5.6137702878052504 3.9676084627582804 0 0 0
279 2 3.845132472969744 2.00693844152027 3.4981734004171274 1 1 0
94 1 1.5795500163253253 2.3436147193739933 2.8095416885764988 0 0 1
156 2 4.998345529271115 18.671637101190736 2.0960316121457208 0 -1 0
249 2 5.690654768371162 17.223626114080307 0.5659822610058524 2 0 0
1112 2 19.174682499271675 1.8838889473971394 2.898923424292319 1 -2 -1
917 2 5.224886697975717 6.097267194646708 1.6718850893941077 0 0 1
1105 1 4.050420595880825 19.12694130991016 2.175919108662725 1 -1 0
999 2 3.4590078824959223 18.976441312489555 2.861948032576565 2 0 -1
912 2 6.515479524076673 4.917295573682978 1.39918927954651 0 2 2
1236 2 5.290303407597044 0.8565927500079114 4.561826891688376 0 2 1
990 2 3.9642690927623483 2.854104567091184 0.6260114915180349 0 0 1
405 2 4.3774353529417205 4.285991231977907 1.1370216070444337 1 0 1
1010 2 2.8603833051136998 3.965702408274285 1.8758885118258566 1 0 0
1267 1 3.8934054527643984 3.543838873188158 1.317951610131473 1 1 1
789 2 4.617465292560632 4.663372741468534 4.121684255646449 -1 1 0
805 1 7.084384259795862 1.0378225025187442 1.3252470491584663 0 0 0
309 2 7.214116814160633 5.015725199971404 4.516527054040105 1 1 1
83 2 8.065404664912613 1.2283138542212466 1.5148649610166667 1 0 1
1074 2 9.669311740132176 5.654223619166671 3.0770421220406265 0 1 2
241 1 6.897023823551282 4.255499086066723 3.9667479665914556 0 0 -1
226 1 7.084787056593931 6.0353770006845995 18.666339031296907 0 0 -1
923 2 10.984751643617606 6.736258939969494 0.36006565328780193 0 2 2
168 2 7.372003614230732 6.22031544365606 1.393114617696057 -2 0 1
238 1 8.950716319721147 7.755255195207638 0.8386658423812335 -1 0 0
433 1 9.587031972443013 0.874539056601114 1.98862392445829 0 0 0
361 1 9.212830884809769 5.746644595625613 2.14513651563452 0 1 0
963 2 8.572514436048396 6.431335739561534 2.497807574877426 -1 1 2
303 2 10.979627115482803 8.432563089048688 1.6543525541482687 2 0 0
239 2 6.283383021908492 4.703180020419197 3.348338058711534 0 0 -1
830 2 11.222483089333933 2.212139283500992 5.199442451771992 0 1 0
1183 1 5.919875933121123 2.3241725604155317 5.354593319837498 0 0 1
909 2 6.327022165580729 3.2293648099463317 5.434502057469521 -1 -1 0
78 2 8.325999626726947 3.7271799111489248 4.099240814297976 -1 0 2
851 2 6.6797714033798234 1.58374234079964 5.956077580149629 0 1 0
717 2 10.62165839397099 17.2139283534945 5.75962159554562 2 0 0
732 2 9.95876304189376 3.22470891253135 2.4802944769324804 -1 0 1
328 1 10.8704343991035 2.786548080519868 2.4499464956063193 0 1 -1
7 1 13.532307606528274 3.2577267175345237 3.015390727405685 -1 0 0
969 2 10.988144111525882 3.3165104195181665 1.3953596066097833 1 -1 2
1208 2 9.805660909327155 18.57874711298542 3.605352847971363 0 -1 0
1149 2 12.548533590128393 3.3177852691608747 2.7547626113638533 1 0 0
259 1 11.234147646883164 3.934872603266855 0.4850272355003715 0 0 0
108 2 10.101527018629863 1.3035579759284883 1.409842615522261 0 1 0
956 2 13.990422963098887 5.742744370274081 1.7573133682525233 1 0 1
561 2 11.468568764953636 4.412405171092991 5.789397558396244 -3 0 0
140 2 14.135484333375246 3.9272098308732586 2.789558160732467 0 -1 0
757 1 13.759894801216518 4.942845792197417 1.0172967739985141 0 1 1
301 1 11.316854631001712 5.068956857913543 3.3358797736054386 0 0 0
708 2 10.903392080999934 6.267277773502844 2.040245900466023 1 -1 0
1007 2 15.233935417664732 18.929646105053965 3.7169049402166894 1 1 2
81 2 12.777441131011814 3.328814914010407 4.567204460539415 0 0 0
235 1 13.11234768741132 1.3418350501868361 5.910197308799315 0 1 0
719 2 10.92423455818547 1.2473896447912127 16.180586939987464 0 0 0
1121 2 14.1434524483252 2.179815760221744 2.5005761751447855 1 1 2
217 1 14.501522108919948 1.7195657170790617 1.4916003114069158 0 0 0
477 2 13.055503777768358 4.399813778404089 1.2390987826728626 -1 -1 1
880 1 18.425551026105982 5.0312185581629105 3.06363731165698 -1 0 1
680 2 1.121815309150035 5.650317634592123 4.440667916358482 1 -1 -1
1211 2 1.8854185076066985 2.2267972296307494 1.8998959761275742 1 1 1
498 2 4.820853484472534 2.9243654919672033 4.261567726985427 1 0 1
76 1 2.071608830487623 4.654090589742793 2.0136924032514747 0 0 0
297 2 15.227013248720887 5.153266240604293 2.645299892894087 0 0 0
130 1 15.770579555541651 4.413517400438387 2.084287925157197 0 0 0
548 2 1.0964348324124453 4.458839291062919 2.0159712534311542 1 1 2
430 1 17.583738924330714 5.145394555131184 0.6773632790543846 0 1 0
564 2 15.65733587743488 4.718001402798588 1.1182258887457281 -1 -1 1
1070 2 16.98427995185756 5.931768843859011 0.9998457726159126 -2 1 0
526 1 16.345878691929514 3.1485223018131556 3.993247171083178 0 1 1
327 2 18.09999467342125 5.292361081050067 2.1688785694180863 -2 0 1
490 1 17.65802390691487 2.7101258672400865 1.6850556437485906 0 0 0
164 2 17.572937712511976 1.7420531002781448 1.5725921865683143 -1 0 0
1178 2 16.13825648483551 6.604232648171753 2.6595422112169844 -1 0 1
1083 2 17.71441616560468 4.62411751224457 3.48899787850874 -1 1 1
1130 2 16.376366156506684 5.215278859027033 4.204117122985499 0 0 0
687 2 16.920671528212743 3.0948736144898636 1.1144481169054077 -1 1 2
827 2 4.109080547836848 7.613957057930255 1.6757792076234013 2 0 0
22 1 0.8163626828120722 7.683635921985487 1.5915576087526935 1 0 0
57 2 2.1896024330349495 8.847259159579874 1.9337165732368706 0 1 1
307 1 3.240494869518893 6.828990458399892 2.5543423504732927 0 1 0
619 1 2.820264624350855 9.52085653336575 1.6117964655178434 0 0 1
568 1 4.359646623556481 8.315753767313556 3.7891451572002603 1 0 0
740 2 3.7611006249629932 8.372530460596368 4.560158598407361 1 1 0
585 2 2.9195570820939873 7.429287144485796 5.473358907200935 0 0 1
569 2 3.611996489358187 6.312485568844956 3.2995922595089633 0 0 0
358 1 2.42872042639455 8.193731693431294 5.144344309403331 0 1 0
1104 2 3.262265396952505 10.044658285198897 2.3134134513006996 0 1 1
1012 1 4.812794109438085 7.389829341659815 0.9485549861316118 0 0 0
579 2 4.9179973588624755 10.062945740252982 4.578824904340203 1 -1 0
119 2 2.854022326073291 6.130168747862365 2.029895667527378 0 0 1
875 2 1.9079235932145375 7.464354930274586 7.460901171732717 -3 1 0
1147 1 18.116140297029695 8.380746688331005 3.535211633126789 0 0 1
870 2 18.183884207110545 7.54270645382609 1.4216887274179495 0 0 0
150 2 6.187976929454826 9.798858880057228 2.8079317538096786 1 0 -1
1044 2 4.003657876529866 8.807471985766078 2.9479448634556005 -1 0 1
1272 2 6.107534881167761 5.55737257177293 7.168123889096539 0 0 2
393 2 9.256870400098126 6.776753056676658 0.7781115453362277 0 1 1
401 2 7.73734213526608 5.300568352021626 18.459939850961113 -1 0 0
356 2 8.753214561168349 4.046327566351401 1.4975294520484361 1 0 2
786 2 4.419278678860546 6.7631825210862395 0.40076305241877463 1 2 0
769 1 5.441133956928371 10.186717224759285 2.330896957051463 0 1 1
1249 1 6.701912884232192 7.207501730740598 2.8584291361436667 1 2 0
292 1 7.843055505233409 9.401658169418175 2.336363307548986 0 0 0
1209 2 7.50360214654902 9.714058033417285 1.5442906803882839 0 -1 0
1144 1 7.152122547149529 9.176847941435799 18.401798139875687 1 0 0
70 1 8.998377881158545 6.097662551487579 4.441894807530703 0 0 0
199 1 10.587077379781855 9.306073120522395 1.3590955858409466 0 0 0
1254 2 7.135730842441859 7.860056005089772 3.421280036214238 1 0 1
440 2 9.586422908488117 7.072969651083758 4.2485756091999045 -1 1 0
41 2 9.787758752938133 8.372754998853004 1.0209781354673968 1 1 1
213 2 5.734881524505179 7.284196835830889 2.925490951136566 1 -1 1
978 2 4.785669445145253 5.427770765202457 2.9669903235987203 1 -1 0
908 2 8.342355526514954 8.615658729544345 2.068840473767322 -2 -1 -1
288 2 8.78602583427496 6.1798489355899 5.361205927732233 1 -1 0
13 1 8.604832802265879 8.346667468253624 4.9666198261403816 0 0 0
113 2 7.148108879953959 9.81475970734421 7.527197035807795 0 -1 -1
629 2 8.925371525450728 9.458410117578758 5.215435572376243 0 -1 0
714 2 11.627019668644134 4.354602573284506 3.764419127467718 0 0 1
1017 2 10.206337824076774 7.559052337475589 18.013166047620842 1 0 1
452 2 13.098417934627046 6.714749461123956 1.4608304907388148 0 0 1
483 2 11.434558370751871 5.8384791514281735 3.7443159243745576 0 -2 1
751 1 10.481948925917344 7.804644432206805 3.616756410924007 -1 0 0
1190 2 10.072485369707756 8.323756576432498 3.043020291877871 -1 0 1
971 2 12.18956073172922 7.985677941589949 5.220426767207108 1 1 2
1043 2 13.88156632148359 5.674626210985936 4.8072187105328 0 0 1
944 2 14.622137109481605 8.63611271300868 2.8998485340039077 0 0 1
1075 1 13.886981586602321 5.445327493844409 3.903844618987349 1 1 1
941 2 13.102353264057342 8.037418022651828 1.8670507783254866 0 1 2
578 2 13.072018619271184 10.105316843767701 5.520339444481667 0 -2 0
1066 1 13.924194734821102 7.373898673865307 1.8599047605571848 0 0 1
610 1 14.835003041858773 8.382309450122976 3.7768177650150547 -1 0 0
939 2 13.835207044554364 6.264206694015372 3.33104217715782 0 -2 1
915 2 9.098283163860764 12.981092032812057 17.64916909923363 2 0 1
232 1 12.898107567012566 9.266441915110647 18.35072176088648 0 0 -1
1205 2 13.526379198140795 8.686780772589398 18.540496520876136 0 2 -1
1274 2 11.438622178388083 7.822347465358557 3.475349577949011 1 2 1
74 2 17.31192973268226 7.595981559620549 17.474162210386723 0 1 0
104 2 1.2579863199957704 6.789204750843256 1.8557682107495268 1 -1 -1
514 1 1.7886290728426915 9.910132204960016 3.9193386274511774 1 0 0
1220 2 18.27569607136873 6.330008728116943 16.789317151358567 1 0 0
934 1 15.710871251605308 8.344428185893037 18.51679218543486 -1 0 0
116 2 15.752545990861718 7.504363481089482 1.3920704065294833 -2 1 1
351 2 16.68500162735874 11.026576844272318 4.404932637542652 -1 -1 -1
431 2 15.645445885134018 7.805179442119225 3.6723921805055335 1 -1 1
977 2 15.34313346449189 9.314324974348605 18.578081082208683 0 0 -1
1048 1 16.458253243968368 7.092707658122259 1.8332834806892584 -1 1 1
285 2 16.196894733112465 8.837615197059407 2.644700062748755 0 0 0
809 2 13.730976925614895 6.214858538686209 15.858613901825521 0 -1 -1
862 1 16.58220908747714 9.382995988751867 1.922356841204597 0 0 0
466 1 16.426756805474692 9.997347020863144 4.253881129409115 0 0 0
464 2 14.175776595321294 9.316239824312522 4.680787211069862 -2 0 -1
1247 2 17.66042817304306 9.607752714538366 0.5883441966570575 0 -1 1
867 2 15.48096427938381 8.031513077252747 17.597154534328993 1 2 0
1068 2 14.995988497651954 11.731613339387872 6.725671027579814 0 1 0
396 2 1.6246982843057391 10.739622962315224 3.4774238888285978 2 1 0
344 2 18.858332510319038 10.8411393305737 17.187091246579875 -1 0 -1
850 1 4.4574014808104385 10.420436521140397 18.32283316259094 1 0 -1
444 2 4.534313222917368 9.913770350797872 0.6675627001539024 0 0 1
1019 2 2.15200176104796 12.377592552302199 0.8256420104456818 1 0 0
214 1 2.9625324534842448 11.922459601462581 1.0704666577356947 1 -1 0
503 2 3.977767548493185 12.74679122837247 5.1855932177983926 1 -1 0
391 1 3.612916877745128 11.275717507287924 3.5746201112560243 0 0 0
384 2 1.4876264876639054 13.018394861182879 4.565922517920824 0 0 1
109 1 1.3980782227653261 12.877914284223259 3.568193509520541 1 -1 0
581 2 4.43692759318985 11.13614845858268 3.0206788642405864 -2 3 2
161 2 2.2904946417230856 12.449124440640034 3.6824932454072745 0 -1 -3
843 2 5.321055588467192 13.727803611053108 2.528858901435154 0 2 0
82 1 3.348211043695175 13.598069754343705 5.077508825564779 1 -1 0
1196 2 3.686432547973608 10.8074461947963 4.4347891388556135 -1 0 1
233 2 18.485740979228613 15.470135456868817 18.349265592296916 0 -1 -2
463 1 3.2130313776431523 14.403342012384236 2.8222182221052545 0 -1 1
1173 2 1.614228633063295 8.064569800082738 5.847864558712088 0 1 1
300 2 16.63028313925735 13.608746715807087 16.14510646694415 -1 2 -1
979 1 1.1683455926844408 10.692350710688135 17.740481743015955 1 -1 1
369 2 3.0274310921758785 11.038161519365243 0.5481517508344917 0 0 0
686 2 17.49061968504359 15.115418889676889 1.8272769218320861 0 0 1
575 2 4.092045486288703 15.536083468292672 1.0493728323588585 2 1 0
1166 2 5.669581034716836 11.137585851365838 2.198618871385337 0 -2 0
467 2 6.817623566307546 10.279174455275806 5.0255448768740845 -1 -1 0
1176 2 3.9004775498115607 15.034952297534355 2.8076894719369974 -1 0 0
955 1 8.28258069041448 10.560602974922224 5.27227175440737 0 0 1
993 2 6.760106369299067 9.903365564689766 6.224441976322658 -1 0 0
859 1 5.8670935799162605 9.930049114937148 4.793548196129054 1 -1 0
364 1 4.990780037109088 13.117685423780186 1.6174454694003646 0 0 0
787 1 6.64448866564998 11.865466253475224 0.599302070494349 0 0 1
1050 2 5.576526961403719 11.398537740389173 16.072400032703953 0 2 -1
204 2 7.56301950447987 13.186997942306387 2.8871158232604133 1 0 0
231 2 4.096771041626363 12.83065261778871 1.82907678992114 1 -1 -1
1132 1 7.847297095272895 12.333505762853973 3.2767499658443273 0 0 0
1230 2 10.029551558425037 7.172185488146269 6.311610599041831 -1 1 0
1055 2 7.425560732001226 11.422877519945493 0.30666236178797546 -1 0 1
770 2 6.379857695274061 14.552195086555892 4.74078089815683 0 -1 0
796 1 6.631645207998347 15.471060965506023 4.552754084614428 0 0 0
84 2 8.208256563495361 11.738826998158103 2.558255834085665 0 1 0
1261 1 7.058484989037772 14.76474987167176 1.9464110555379188 0 0 1
521 2 6.71009164327756 13.966671522404523 1.68936021421801 0 -2 0
872 2 11.924024279487957 9.97619368373251 2.5819048242637166 -1 0 0
266 2 9.23336998950562 11.141269211178797 5.849934064229509 -1 0 0
146 2 13.113992086063009 12.39422247827798 3.607819285036743 -1 -2 0
312 2 15.748161541555293 10.046708421153308 2.007956400655318 -1 0 0
890 2 14.932708839068404 11.512189367377475 2.7508317073540716 1 -1 0
415 1 14.636508168337956 10.745989386488427 2.183216634569713 0 0 0
897 2 9.39546337158967 10.621697399540379 3.4325769576990894 0 0 0
157 1 10.36320506387398 10.812936685636677 3.6513900845290737 -1 0 0
1058 2 11.959900433500408 11.370388841539125 3.9901978820693715 -1 0 1
322 1 12.707332841389233 9.523483163179511 2.719412463630461 0 1 -1
1042 1 14.45644254753922 14.67439963842832 1.8025148331027594 -1 -1 1
876 2 7.959185974813589 11.143280635258073 4.547990374570312 0 0 1
1253 2 13.43057299990646 10.355850310155098 2.6643630267466576 1 1 0
250 1 12.212669598694832 12.259668957461365 4.077820187730932 -1 0 0
726 2 10.375771848590155 11.22071803232103 2.753851607961401 -1 0 -1
439 1 9.7083756520212 13.798897793935982 1.7835305461954902 0 -1 1
756 2 13.355060203435938 11.365862194906505 6.221957423585912 0 1 0
768 2 9.839414764389383 12.853086898018345 1.7975963232393026 0 0 0
957 2 10.105610474600573 13.606797018932932 6.6177713348215645 0 0 1
9 2 12.036938609959062 10.542713867011358 0.852726306395607 0 0 1
524 2 7.306632335862512 13.919355458772014 17.994631169911536 0 0 -2
1118 2 1.9106456160385776 10.354000113724302 4.832476545948204 0 1 0
794 2 14.696032835915556 13.108012044137054 4.456911563155584 0 0 0
1073 2 0.8206351956720818 11.932217533855798 17.369704457957596 1 1 0
1154 2 17.111664630902112 12.094105329991848 2.137221176314162 0 -1 0
181 1 19.088822176454837 13.094850279964913 1.1646808329327838 -1 0 0
387 2 18.917881471153038 13.774789857826121 1.7210071953903068 -2 1 0
918 2 3.6086471244243423 7.710800823507959 18.49506361970561 2 -1 -1
618 2 18.676810758216043 11.094355948152337 1.9099938489566295 1 1 -2
1193 2 14.977697593355503 10.602491877288847 5.495148821332046 0 -1 1
1231 1 18.808797211765455 10.216284630374139 1.5149731796305865 -1 -1 1
607 1 14.703630857408312 12.901681895068428 3.5168284829709155 -1 0 1
1195 1 15.200424291249558 11.452567638499506 5.853831013319746 -1 0 1
8 2 14.757382645751056 13.76563067181356 3.1642066688003365 0 -2 0
903 2 15.971441309561506 11.88919728641118 0.5034994755770033 -3 -1 -1
764 2 18.18760370425081 12.422400008676052 3.0057245199703146 -2 0 2
598 1 17.290883964352577 11.909681087101891 3.012020084574968 -1 0 0
672 2 16.613264318386562 14.275180684940404 5.2551461238712305 -1 1 0
913 1 17.117185416231703 14.290651114264927 2.1709628756395425 -1 -1 1
345 2 1.2747684853055463 9.930686200767319 1.6837043860891787 1 -1 -1
425 2 17.93932214670148 13.966656293336834 5.392378066942159 -1 -1 0
496 1 17.234429767613396 13.772650192888186 4.653483392556556 0 0 0
121 1 18.027962423508843 14.709710267931527 18.10895111479121 0 0 -1
12 2 18.01788273720762 17.361120187128023 0.9992360655116805 -1 1 -1
613 1 5.307808802575746 16.743278117905774 2.3823149564153074 0 -1 0
1004 2 2.2388581040158737 14.862608315382568 2.770567003423907 1 0 1
1016 2 5.107900382902398 16.538239750592716 5.139431188102137 1 0 -2
1045 1 1.9172552813951669 15.939321214876927 18.183613369615415 0 0 0
123 2 4.010589594467973 16.8004117225955 2.1801078941266043 0 -1 1
952 1 4.1759577444201055 16.28285948895229 4.700689753497317 0 -1 1
633 2 3.882120375101589 17.145405712261105 4.392519271676344 -1 -1 1
19 1 5.055344614798714 15.354655583279444 0.9437832950589691 0 -1 0
325 1 1.068096831481024 18.283579173381387 3.5588396597922074 1 0 0
320 2 2.2411102638842104 18.54169627516833 4.547044629913527 0 0 -1
804 2 5.251259763029664 17.4984033650272 3.002241809183681 0 0 2
448 1 2.8509625755349095 16.805429654641635 2.2935401316360386 1 -1 0
932 2 16.970039883445725 16.060313208494044 4.011868635323074 0 0 1
648 2 18.412308190739328 14.201915379580702 0.5601821363558559 -1 -1 1
1240 1 0.957717224048954 15.259891154734955 3.4223324848349335 0 0 1
323 2 1.8024977070287456 15.038815469231269 17.902202430364035 1 1 1
134 2 4.69041687814527 14.474174119995727 1.113703209935712 1 1 1
33 2 1.3941786793943742 17.881460642313492 2.748094628058576 1 -1 -2
472 1 8.024336301979993 1.3865702832948401 4.1071503244787415 0 0 0
902 2 7.678431151181165 18.832201175480726 3.9659084201262664 0 -1 1
219 2 7.406055555719603 17.43398720311422 3.534384590364939 1 0 -1
576 2 9.167411246492762 18.63909899951034 1.2743163996512055 1 -1 1
62 2 9.100629300469611 15.809489358864695 4.481212069158684 0 0 0
690 2 6.693272437163008 17.528138101865856 2.153177064148928 1 2 1
874 1 7.683899962770555 17.374752412404845 2.627321823526003 0 -1 0
1038 2 9.201064060706253 17.449981002562687 18.207885288187477 0 0 0
865 1 8.640527088775933 16.074542257142443 0.8351109583682975 0 -1 0
895 1 8.408929164991696 17.321744806531367 4.959804734904251 -1 -1 0
630 2 8.103428880999434 16.520137628690676 1.6062383485686877 0 0 1
658 1 8.775802966771558 18.28921274061179 18.38113718159149 0 0 0
983 2 9.903328553011686 14.513726697580942 4.049153426002609 -1 -2 1
192 2 8.93331724794672 15.406088412091892 1.1536442219735379 1 -3 1
77 2 11.005967924271596 17.046181629977976 2.660528809797922 -1 -2 3
260 2 8.785390834057381 18.559105413639607 17.410106066364122 1 0 1
1218 2 7.988456001997675 1.2878591198196554 5.063902319742136 1 3 -1
938 2 5.843983781675568 15.764118081581985 4.069167292669299 0 -1 1
46 1 11.744036710150258 1.3937381785961163 18.65646028340756 0 0 0
1187 2 11.826383921696891 16.82679533755117 1.4920124436775863 0 -1 3
1087 1 12.33710548761198 19.153020510300866 2.5001995412899585 0 -1 1
35 2 14.38428591311735 16.232155137696548 1.858540878412366 0 -2 1
1009 1 11.24446627402072 14.841510239468995 18.416813165613874 -1 -1 -1
495 2 11.6553807643818 1.6079262228035982 3.9394150285761715 -1 1 0
316 1 10.353690950294576 17.83262281803655 3.7771814068905183 0 0 0
1003 1 11.22855837682063 16.20019523903455 2.0148243246652795 0 0 0
286 1 12.272952679792741 13.781714749379859 2.017508587450203 -1 0 1
335 2 12.375867011998448 12.249776709379434 1.5599656122451924 -1 1 0
1131 2 13.426231401673164 17.117344969693338 3.8710655249330785 0 -1 1
706 1 13.979001079744469 17.15370102509988 1.9628077982476728 0 -1 1
465 2 12.232502626186406 17.700909018085763 4.3891452550061505 -1 0 0
798 2 13.338601684749646 19.083818667582797 5.384727885553506 0 1 0
819 2 16.32657062267247 15.728055757621664 2.298100535397074 0 0 0
655 1 11.093716842218983 1.392631515726328 4.753949498324437 0 0 0
624 2 15.583372290842895 13.881895196369122 18.386490111769625 0 -1 1
710 2 11.77667551547834 13.85300637174476 1.2186221831041224 1 0 1
492 2 10.608045421430246 14.11328185083395 18.56807137482587 0 -2 -1
1257 2 9.700669746628533 17.232239654806033 3.8721931342817033 -1 1 0
93 2 16.28568238916207 16.886351357915828 18.571632769719443 0 -1 0
1135 1 16.771857478389762 18.92371365497655 3.3164721822166396 0 -1 0
920 2 17.467117062950383 1.2122166115044206 4.224815152148227 -1 0 1
893 2 0.8687780920340639 16.644063247974085 0.9265554474095946 0 0 1
2 2 17.467759838021955 18.07640903967938 3.402568986547524 0 0 -1
965 2 15.41937824986466 16.14501369878741 4.758951435384453 1 0 0
1113 2 14.786794638615717 17.63186500157463 2.492106249635962 0 0 -1
523 1 15.058940376245182 15.610788989554885 3.9444536894029203 -1 0 0
652 1 14.551860624340422 1.107208828545789 3.773852327860454 0 1 0
451 1 18.557598043050564 16.69927461013414 1.4480314479964242 0 -1 0
668 2 18.1273924826166 17.427556423237384 5.592775406627732 0 -1 2
1197 2 14.193722774755907 15.246698505126425 4.018927905818211 -1 1 1
437 2 15.017772143556531 2.0241022786279865 3.780497863294362 -2 1 -1
10 1 16.44837278792383 16.856070049294935 2.128139461053569 -1 0 0
512 2 18.736712929064403 15.878060541588379 4.074454756848284 -1 0 1
844 1 17.68509865776217 16.31869555929536 4.763637277001724 0 0 0
1089 2 14.911631410196279 17.466440795415444 5.532652035036611 1 -1 0
1136 2 15.224310923116498 14.555301063872857 2.1917640833264085 0 -1 1
828 2 17.701701798519412 13.976748543078912 2.7702642305368697 0 0 -1
202 1 1.5485762736950233 0.8627981580603262 1.0241630535695272 0 1 0
639 2 2.966223081663018 17.7899908923144 2.258192403013466 0 -1 -1
906 2 2.0166304551505165 16.497779460900723 17.426032440666745 1 -1 -1
293 2 13.522494617341462 14.862925259031691 2.0129036026253475 -2 -2 0
884 2 1.8670408394110516 0.977015313842567 18.23138134927669 1 -2 1
1079 2 2.352163941252442 16.81315931653069 6.031658105395872 0 -1 -1
533 2 2.0619179921920248 2.8435867994024844 6.397898181808526 2 -1 1
480 2 0.9810877596203766 17.419247852140746 4.061861194135698 0 -1 1
842 2 4.396618144316085 2.157408703072905 9.24756598142722 1 2 1
97 1 4.991492427635732 1.3199478723083145 9.5682848444871 0 0 0
889 1 3.5620980811442617 4.287159683888432 5.969160852557121 0 0 0
1047 2 18.085606063275904 1.4016708439401289 8.14297158178417 -1 1 0
343 1 2.019473084753005 1.9171219899757166 6.33700267525418 0 0 0
1128 2 7.9821377316242135 4.347363445092185 7.846537754908946 2 0 1
462 2 5.003114421939327 18.79230721613692 9.356439432896607 0 0 0
670 1 2.1275543191090915 5.365594674997845 4.371201513352738 1 1 0
871 1 4.253644437753405 1.2702834300937456 6.824339243674826 0 0 0
1091 2 4.475235307824059 4.2020284368699 6.364231420843827 1 0 1
975 2 3.4855772269051473 6.658733352559877 8.144146524956577 0 0 2
488 2 3.4499219637848797 3.9394099464090733 5.0711354225906105 0 0 -1
450 2 2.702712280686701 18.55033278980521 7.292753307748026 0 0 -1
552 2 5.084396902772956 1.756694850451904 6.158764463076607 0 2 -1
409 1 1.6126097200820606 19.22181380935026 8.278899897654433 1 0 -1
928 1 3.2697977420013045 5.657016597869376 8.350131561727247 1 0 0
701 2 6.2603063996253265 2.22940040992024 10.4602547526401 1 1 -1
208 1 6.138600226076772 17.83646132334162 8.584011159174937 0 -1 -1
99 2 5.487764705514554 17.377147772110135 7.941896894666662 0 -1 -1
1158 2 6.1940764649537545 17.201600107927586 9.849822555995091 -1 0 0
1102 1 6.345415717330877 5.147471745651491 6.070873381116378 0 0 1
791 2 7.408165999157496 5.252817973614204 6.0614060026318 1 2 -1
290 2 10.880545688617135 5.907422849190764 6.019738162303043 -1 0 -1
925 1 7.774955793689217 1.464888964090673 8.779630891062556 0 -1 0
502 1 9.306282166326646 3.5919682745276815 4.1531261993681525 0 0 0
992 2 8.692879767224984 3.4473109899115224 5.88816955247774 1 1 1
653 2 9.161420655729898 2.620705282268511 4.424457591131643 0 0 1
692 2 9.49543036413914 3.775031787700546 6.93085148294412 1 0 2
1006 1 8.568584101911618 3.735159172437075 6.717654494638625 0 0 1
88 1 5.528639610943769 3.0524374734400097 8.156046441994718 0 0 -1
222 2 7.086949851922512 1.952722540665566 9.142471444213939 0 0 0
1086 2 7.785415451808695 1.5790915578384626 7.3760689768409735 -1 0 0
1069 1 9.53380907032488 0.9683000381766876 6.584185361310405 0 0 0
741 2 9.582170429932502 19.207303496771463 7.490210645528822 0 1 1
59 2 3.875193717805727 1.6449225226967774 7.51933667593672 0 0 0
544 1 7.2368004577823095 0.8828830923324386 6.684885224663853 1 0 -1
1098 2 8.651710761981265 18.665234597799557 11.048867668773774 -1 0 2
306 2 7.421459009971016 18.90394224941326 8.980753356697555 -1 1 -2
210 2 9.359991210255924 2.4105616200103572 9.46600796011845 1 1 0
747 2 6.215777238694337 3.045783368202788 7.4064082645435505 0 -1 -1
877 1 10.47341160972622 5.064711648029865 6.087174410560286 -1 -1 1
703 1 12.055859035854885 3.4408897552267765 5.190310308537946 0 0 1
1033 1 12.621792248974685 5.200591579205746 7.547018697312794 -1 1 0
782 2 15.436176695407548 6.418885564070682 5.33992139181992 0 2 1
194 2 13.969992333344992 4.373869296582033 6.491686769347627 0 -1 0
366 2 13.353427094903788 2.8673569807252304 9.149431047242828 -1 -1 -2
1258 1 14.177507552435861 3.7265117046817973 5.948603381183211 0 1 1
667 1 12.347567015173555 3.0422146773283236 9.144193481063782 0 1 1
810 2 10.284326686388129 3.688020861684946 9.568016478888058 0 -1 1
656 2 13.436448749826647 18.863470520769955 8.31227052669031 0 0 0
1284 2 12.043203929722207 4.755853365840604 8.287978620984797 1 3 1
649 1 11.061127615770005 2.565820260181064 7.283444349408485 0 1 -1
1269 2 13.494662162801461 3.001792966712353 6.189167781198268 -1 0 1
20 2 11.711999058555026 0.9354350845651058 9.006408501725131 1 0 0
382 1 14.799164563042298 3.54040937625383 8.716772728483003 0 1 0
441 2 16.98510083112434 3.142081668517141 4.6203591524399314 0 -1 1
572 2 15.26512203367754 4.419881882546729 8.851011975201848 0 0 1
1212 2 9.761431059342309 5.12515913375158 9.268891280914483 -1 0 2
389 2 10.938754828131852 5.399075481899252 10.448526013694869 2 1 0
1159 1 13.31481272334411 5.952708411736932 9.747869594462317 -1 0 0
38 2 12.157307401057466 5.306519715760864 6.761026166397964 0 1 2
749 2 11.701734572955333 2.993398497755771 6.705871865010503 0 2 -1
507 2 12.450091380738602 18.85359598551387 6.850849526645953 0 -2 1
304 1 12.720866105431517 19.22774636896529 9.026429867725838 0 0 0
69 2 2.6285705143747817 6.142307700036768 4.242489758976725 0 -2 1
90 2 17.20947833560136 4.638916008046401 5.995230435795169 -1 1 0
972 2 17.467775752634523 6.446492459658777 3.7583780468014893 0 0 1
1081 1 19.182383410018538 3.683688844021793 5.1954094941833855 0 0 1
111 2 1.6211552546445627 1.312797426990441 9.117863049339327 1 0 1
149 2 15.565550730672365 3.844298484257792 5.48748730879599 0 2 2
1 1 15.923948304243376 1.5168653111498311 6.427982168254882 0 0 0
722 2 16.83000071960941 3.0675650359100692 3.1728365174208757 -2 2 0
1063 1 17.362499656387392 4.46579204597105 8.564047858036716 -1 0 1
601 1 16.53402614227251 3.9289576022188824 5.9179103800408015 -1 0 0
475 1 18.1077818088245 2.0831431985244 7.348466942669574 -1 0 2
729 2 17.47448554281982 0.9091712105860154 9.500892096339156 0 1 0
554 2 1.0161691229109147 2.852303887336639 4.929731998320804 1 0 1
17 2 19.10379341311702 4.893122746687919 7.983846121490754 -1 -1 0
1288 1 18.231383025334196 1.3722100515938525 4.645195947141143 0 1 1
272 2 0.9025911176200729 4.236419108937101 4.437554558316934 0 2 0
1051 1 1.371866844124091 4.185827692592683 7.777152001450781 0 0 0
135 2 16.7871689385789 3.9370450988681274 8.084621164544554 1 -1 -2
996 2 17.087283596643516 5.091063697537545 9.496660795752874 -1 0 2
881 2 4.722529465007375 6.844411361057178 6.212546676792019 1 0 0
137 2 19.18441884884649 8.658997042808586 3.5767621013992357 0 -1 -1
785 2 1.966034130021966 4.936372276925521 3.1357183614833075 0 -1 0
775 1 1.075691984071815 6.488668126181184 9.167266673305113 0 0 0
689 2 6.039191461567951 7.39124947614592 8.006655156089103 1 1 0
702 2 19.19256986442532 6.125596225217174 5.964673282374369 0 0 1
1032 2 1.1935006801083339 5.762842638959462 9.887363622553531 -2 1 1
960 2 18.800267824715224 6.285311401793608 8.65491049247541 1 0 1
248 2 3.638527002969024 10.237760464462852 7.972364301452563 1 -1 -1
1138 1 1.7070736498032497 6.630603045064005 7.059577392583987 1 1 0
211 1 4.210907978890161 9.381145311830437 6.388851652741733 0 0 0
1139 2 3.6187820070033507 5.431721854726611 5.879926588104804 1 0 -1
112 1 3.7944760866006084 6.514680703018939 5.9136850950599715 1 0 -1
752 2 3.515758505030044 8.58638725111391 8.985488899688953 0 -1 1
1270 1 3.5823848652421746 7.890736290984901 8.311918305884038 1 1 1
1286 2 5.6620953242090835 7.625341927164621 4.698198650969284 1 0 -2
338 2 6.520594844739237 4.4958426872676265 10.520695248079297 0 1 -1
593 2 2.1563577775438025 5.749882933159269 7.470876142334905 0 0 -3
527 2 6.367514589903636 6.629847158472609 5.6683707938892045 2 -1 0
931 1 6.018287503102997 6.366924636963561 7.946173558457569 0 0 1
713 2 8.643807879273833 7.13492988853293 7.729109252711391 1 0 0
144 2 9.5449243572066 7.812308829954082 9.61772174233929 1 -2 0
1141 1 6.392010065737742 7.5366100448817255 5.40663297816673 1 0 0
793 1 8.34445165858299 6.476332807271529 7.176172037110318 0 1 -1
132 2 7.792473925299421 8.168939310603903 5.171874238897546 0 0 1