
     Program PWSCF v.5.4.0 starts on 22Sep2019 at 19: 0:59 

     This program is part of the open-source Quantum ESPRESSO suite
     for quantum simulation of materials; please cite
         "P. Giannozzi et al., J. Phys.:Condens. Matter 21 395502 (2009);
          URL http://www.quantum-espresso.org", 
     in publications or presentations arising from this work. More details at
     http://www.quantum-espresso.org/quote

           HOST :    @host@
           ARCH :    
             CC :    cc
            CPP :    cpp
            F90 :    mpif90
            F77 :    gfortran
         DFLAGS :    -D__GFORTRAN -D__STD_F95 -D__FFTW3 -D__MPI -D__PARA
      BLAS LIBS :    -lopenblas
    LAPACK LIBS :    -lopenblas
       FFT LIBS :    -lfftw3
      MASS LIBS :    

     Parallel version (MPI), running on    28 processors
     R & G space division:  proc/nbgrp/npool/nimage =      28
     Waiting for input...
     Reading input from standard input
Warning: card &IONS ignored
Warning: card / ignored
Warning: card &CELL ignored
Warning: card / ignored

     Current dimensions of program PWSCF are:
     Max number of different atomic species (ntypx) = 10
     Max number of k-points (npk) =  40000
     Max angular momentum in pseudopotentials (lmaxx) =  3

     IMPORTANT: XC functional enforced from input :
     Exchange-correlation      = PBE ( 1  4  3  4 0 0)
     Any further DFT definition will be discarded
     Please, verify this is what you really want


     gamma-point specific algorithms are used

     Subspace diagonalization in iterative solution of the eigenvalue problem:
     a serial algorithm will be used


     Parallelization info
     --------------------
     sticks:   dense  smooth     PW     G-vecs:    dense   smooth      PW
     Min         445     445    110                37558    37558    4694
     Max         448     448    112                37564    37564    4708
     Sum       12517   12517   3125              1051747  1051747  131683
     Tot        6259    6259   1563



     bravais-lattice index     =            1
     lattice parameter (alat)  =      18.8973  a.u.
     unit-cell volume          =    6748.3346 (a.u.)^3
     number of atoms/cell      =            5
     number of atomic types    =            2
     number of electrons       =         8.00
     number of Kohn-Sham states=            4
     kinetic-energy cutoff     =     110.0000  Ry
     charge density cutoff     =     440.0000  Ry
     convergence threshold     =      1.0E-06
     mixing beta               =       0.5000
     number of iterations used =            8  plain     mixing
     Exchange-correlation      = PBE ( 1  4  3  4 0 0)

     celldm(1)=  18.897261  celldm(2)=   0.000000  celldm(3)=   0.000000
     celldm(4)=   0.000000  celldm(5)=   0.000000  celldm(6)=   0.000000

     crystal axes: (cart. coord. in units of alat)
               a(1) = (   1.000000   0.000000   0.000000 )  
               a(2) = (   0.000000   1.000000   0.000000 )  
               a(3) = (   0.000000   0.000000   1.000000 )  

     reciprocal axes: (cart. coord. in units 2 pi/alat)
               b(1) = (  1.000000  0.000000  0.000000 )  
               b(2) = (  0.000000  1.000000  0.000000 )  
               b(3) = (  0.000000  0.000000  1.000000 )  


     PseudoPot. # 1 for  H read from file:
     ../pseudo/H.tm.pbe.UPF
     MD5 check sum: 4b614d66af87240b7a5107bfa527a767
     Pseudo is Norm-conserving, Zval =  1.0
     Generated using "atomic" code by A. Dal Corso  v.5.2.0
     Using radial grid of  929 points,  0 beta functions with: 

     PseudoPot. # 2 for  C read from file:
     ../pseudo/C.tm.pbe.UPF
     MD5 check sum: a4f27fcb9b24331b00ace8e732a7e062
     Pseudo is Norm-conserving, Zval =  4.0
     Generated using "atomic" code by A. Dal Corso  v.5.2.0
     Using radial grid of 1073 points,  1 beta functions with: 
                l(1) =   1

     atomic species   valence    mass     pseudopotential
        H              1.00     1.00000      H( 1.00)
        C              4.00     1.00000      C( 1.00)

     No symmetry found



   Cartesian axes

     site n.     atom                  positions (alat units)
         1           H   tau(   1) = (   0.5373040   0.4179630   0.3620210  )
         2           H   tau(   2) = (   0.4013010   0.4994440   0.4343370  )
         3           H   tau(   3) = (   0.5549030   0.5707030   0.4453270  )
         4           H   tau(   4) = (   0.5271810   0.4194360   0.5387680  )
         5           C   tau(   5) = (   0.5071880   0.4750310   0.4464780  )

     number of k points=     1
                       cart. coord. in units 2pi/alat
        k(    1) = (   0.0000000   0.0000000   0.0000000), wk =   2.0000000

     Dense  grid:   525874 G-vectors     FFT dimensions: ( 128, 128, 128)

     Largest allocated arrays     est. size (Mb)     dimensions
        Kohn-Sham Wavefunctions         0.14 Mb     (    2354,    4)
        NL pseudopotentials             0.11 Mb     (    2354,    3)
        Each V/rho on FFT grid          1.25 Mb     (   81920)
        Each G-vector array             0.14 Mb     (   18782)
        G-vector shells                 0.02 Mb     (    2785)
     Largest temporary arrays     est. size (Mb)     dimensions
        Auxiliary wavefunctions         0.29 Mb     (    2354,   16)
        Each subspace H/S matrix        0.00 Mb     (      16,   16)
        Each <psi_i|beta_j> matrix      0.00 Mb     (       3,    4)
        Arrays for rho mixing          10.00 Mb     (   81920,    8)

     Initial potential from superposition of free atoms
     Check: negative starting charge=   -0.000383

     starting charge    7.99992, renormalised to    8.00000

     negative rho (up, down):  3.826E-04 0.000E+00
     Starting wfc are    8 randomized atomic wfcs

     total cpu time spent up to now is        2.8 secs

     per-process dynamical memory:   430.8 Mb

     Self-consistent Calculation

     iteration #  1     ecut=   110.00 Ry     beta=0.50
     Davidson diagonalization with overlap
     ethr =  1.00E-02,  avg # of iterations =  2.0

     negative rho (up, down):  1.800E-04 0.000E+00

     total cpu time spent up to now is        3.2 secs

     total energy              =     -16.01170058 Ry
     Harris-Foulkes estimate   =     -16.42451368 Ry
     estimated scf accuracy    <       0.73231817 Ry

     iteration #  2     ecut=   110.00 Ry     beta=0.50
     Davidson diagonalization with overlap
     ethr =  9.15E-03,  avg # of iterations =  2.0

     negative rho (up, down):  9.327E-05 0.000E+00

     total cpu time spent up to now is        3.8 secs

     total energy              =     -16.15067196 Ry
     Harris-Foulkes estimate   =     -16.16908802 Ry
     estimated scf accuracy    <       0.04851246 Ry

     iteration #  3     ecut=   110.00 Ry     beta=0.50
     Davidson diagonalization with overlap
     ethr =  6.06E-04,  avg # of iterations =  1.0

     negative rho (up, down):  4.246E-06 0.000E+00

     total cpu time spent up to now is        4.1 secs

     total energy              =     -16.14859309 Ry
     Harris-Foulkes estimate   =     -16.15400143 Ry
     estimated scf accuracy    <       0.01134389 Ry

     iteration #  4     ecut=   110.00 Ry     beta=0.50
     Davidson diagonalization with overlap
     ethr =  1.42E-04,  avg # of iterations =  2.0

     negative rho (up, down):  5.346E-06 0.000E+00

     total cpu time spent up to now is        4.5 secs

     total energy              =     -16.15035936 Ry
     Harris-Foulkes estimate   =     -16.15233509 Ry
     estimated scf accuracy    <       0.00444760 Ry

     iteration #  5     ecut=   110.00 Ry     beta=0.50
     Davidson diagonalization with overlap
     ethr =  5.56E-05,  avg # of iterations =  2.0

     negative rho (up, down):  2.524E-06 0.000E+00

     total cpu time spent up to now is        5.0 secs

     total energy              =     -16.15068209 Ry
     Harris-Foulkes estimate   =     -16.15078082 Ry
     estimated scf accuracy    <       0.00022715 Ry

     iteration #  6     ecut=   110.00 Ry     beta=0.50
     Davidson diagonalization with overlap
     ethr =  2.84E-06,  avg # of iterations =  3.0

     total cpu time spent up to now is        5.5 secs

     total energy              =     -16.15079993 Ry
     Harris-Foulkes estimate   =     -16.15079754 Ry
     estimated scf accuracy    <       0.00000967 Ry

     iteration #  7     ecut=   110.00 Ry     beta=0.50
     Davidson diagonalization with overlap
     ethr =  1.21E-07,  avg # of iterations =  2.0

     total cpu time spent up to now is        5.9 secs

     total energy              =     -16.15079412 Ry
     Harris-Foulkes estimate   =     -16.15080081 Ry
     estimated scf accuracy    <       0.00001295 Ry

     iteration #  8     ecut=   110.00 Ry     beta=0.50
     Davidson diagonalization with overlap
     ethr =  1.21E-07,  avg # of iterations =  2.0

     total cpu time spent up to now is        6.4 secs

     End of self-consistent calculation

          k = 0.0000 0.0000 0.0000 ( 65842 PWs)   bands (ev):

   -16.9597  -9.5579  -9.3525  -9.0186

     highest occupied level (ev):    -9.0186

!    total energy              =     -16.15079604 Ry
     Harris-Foulkes estimate   =     -16.15079614 Ry
     estimated scf accuracy    <       0.00000023 Ry

     The total energy is the sum of the following terms:

     one-electron contribution =     -40.70395158 Ry
     hartree contribution      =      21.18381335 Ry
     xc contribution           =      -6.38556299 Ry
     ewald contribution        =       9.75490519 Ry

     convergence has been achieved in   8 iterations

     Forces acting on atoms (Ry/au):

     atom    1 type  1   force =     0.01701899   -0.02466363   -0.03520628
     atom    2 type  1   force =    -0.01109439   -0.01223207    0.00826681
     atom    3 type  1   force =     0.03137954    0.02728454    0.00530438
     atom    4 type  1   force =    -0.00370463    0.00553853    0.00011608
     atom    5 type  2   force =    -0.03359951    0.00407263    0.02151901

     Total force =     0.076738     Total SCF correction =     0.000533


     entering subroutine stress ...

          total   stress  (Ry/bohr**3)                   (kbar)     P=    1.01
   0.00000682   0.00000549  -0.00000470          1.00      0.81     -0.69
   0.00000549   0.00000766   0.00000759          0.81      1.13      1.12
  -0.00000470   0.00000759   0.00000615         -0.69      1.12      0.90


     init_run     :      2.41s CPU      2.44s WALL (       1 calls)
     electrons    :      3.51s CPU      3.57s WALL (       1 calls)
     forces       :      0.92s CPU      0.92s WALL (       1 calls)
     stress       :      1.10s CPU      1.10s WALL (       1 calls)

     Called by init_run:
     wfcinit      :      0.10s CPU      0.11s WALL (       1 calls)
     potinit      :      0.95s CPU      0.95s WALL (       1 calls)

     Called by electrons:
     c_bands      :      1.34s CPU      1.35s WALL (       8 calls)
     sum_band     :      0.43s CPU      0.43s WALL (       8 calls)
     v_of_rho     :      1.72s CPU      1.76s WALL (       9 calls)
     mix_rho      :      0.21s CPU      0.21s WALL (       8 calls)

     Called by c_bands:
     init_us_2    :      0.04s CPU      0.04s WALL (      17 calls)
     regterg      :      1.31s CPU      1.32s WALL (       8 calls)

     Called by sum_band:

     Called by *egterg:
     h_psi        :      1.35s CPU      1.37s WALL (      25 calls)
     g_psi        :      0.01s CPU      0.01s WALL (      16 calls)
     rdiaghg      :      0.00s CPU      0.00s WALL (      24 calls)

     Called by h_psi:
     add_vuspsi   :      0.00s CPU      0.00s WALL (      25 calls)

     General routines
     calbec       :      0.29s CPU      0.29s WALL (      30 calls)
     fft          :      1.67s CPU      1.71s WALL (     106 calls)
     fftw         :      1.08s CPU      1.10s WALL (     114 calls)

     Parallel routines
     fft_scatter  :      1.06s CPU      1.10s WALL (     220 calls)

     PWSCF        :     8.29s CPU         8.43s WALL


   This run was terminated on:  19: 1: 7  22Sep2019            

=------------------------------------------------------------------------------=
   JOB DONE.
=------------------------------------------------------------------------------=
