
     Program PWSCF v.5.4.0 starts on 22Sep2019 at 18:16:24 

     This program is part of the open-source Quantum ESPRESSO suite
     for quantum simulation of materials; please cite
         "P. Giannozzi et al., J. Phys.:Condens. Matter 21 395502 (2009);
          URL http://www.quantum-espresso.org", 
     in publications or presentations arising from this work. More details at
     http://www.quantum-espresso.org/quote

           HOST :    @host@
           ARCH :    
             CC :    cc
            CPP :    cpp
            F90 :    mpif90
            F77 :    gfortran
         DFLAGS :    -D__GFORTRAN -D__STD_F95 -D__FFTW3 -D__MPI -D__PARA
      BLAS LIBS :    -lopenblas
    LAPACK LIBS :    -lopenblas
       FFT LIBS :    -lfftw3
      MASS LIBS :    

     Parallel version (MPI), running on    28 processors
     R & G space division:  proc/nbgrp/npool/nimage =      28
     Waiting for input...
     Reading input from standard input
Warning: card &IONS ignored
Warning: card / ignored
Warning: card &CELL ignored
Warning: card / ignored

     Current dimensions of program PWSCF are:
     Max number of different atomic species (ntypx) = 10
     Max number of k-points (npk) =  40000
     Max angular momentum in pseudopotentials (lmaxx) =  3

     IMPORTANT: XC functional enforced from input :
     Exchange-correlation      = PBE ( 1  4  3  4 0 0)
     Any further DFT definition will be discarded
     Please, verify this is what you really want


     gamma-point specific algorithms are used

     Subspace diagonalization in iterative solution of the eigenvalue problem:
     a serial algorithm will be used


     Parallelization info
     --------------------
     sticks:   dense  smooth     PW     G-vecs:    dense   smooth      PW
     Min         445     445    110                37558    37558    4694
     Max         448     448    112                37564    37564    4708
     Sum       12517   12517   3125              1051747  1051747  131683
     Tot        6259    6259   1563



     bravais-lattice index     =            1
     lattice parameter (alat)  =      18.8973  a.u.
     unit-cell volume          =    6748.3346 (a.u.)^3
     number of atoms/cell      =            5
     number of atomic types    =            2
     number of electrons       =         8.00
     number of Kohn-Sham states=            4
     kinetic-energy cutoff     =     110.0000  Ry
     charge density cutoff     =     440.0000  Ry
     convergence threshold     =      1.0E-06
     mixing beta               =       0.5000
     number of iterations used =            8  plain     mixing
     Exchange-correlation      = PBE ( 1  4  3  4 0 0)

     celldm(1)=  18.897261  celldm(2)=   0.000000  celldm(3)=   0.000000
     celldm(4)=   0.000000  celldm(5)=   0.000000  celldm(6)=   0.000000

     crystal axes: (cart. coord. in units of alat)
               a(1) = (   1.000000   0.000000   0.000000 )  
               a(2) = (   0.000000   1.000000   0.000000 )  
               a(3) = (   0.000000   0.000000   1.000000 )  

     reciprocal axes: (cart. coord. in units 2 pi/alat)
               b(1) = (  1.000000  0.000000  0.000000 )  
               b(2) = (  0.000000  1.000000  0.000000 )  
               b(3) = (  0.000000  0.000000  1.000000 )  


     PseudoPot. # 1 for  H read from file:
     ../pseudo/H.tm.pbe.UPF
     MD5 check sum: 4b614d66af87240b7a5107bfa527a767
     Pseudo is Norm-conserving, Zval =  1.0
     Generated using "atomic" code by A. Dal Corso  v.5.2.0
     Using radial grid of  929 points,  0 beta functions with: 

     PseudoPot. # 2 for  C read from file:
     ../pseudo/C.tm.pbe.UPF
     MD5 check sum: a4f27fcb9b24331b00ace8e732a7e062
     Pseudo is Norm-conserving, Zval =  4.0
     Generated using "atomic" code by A. Dal Corso  v.5.2.0
     Using radial grid of 1073 points,  1 beta functions with: 
                l(1) =   1

     atomic species   valence    mass     pseudopotential
        H              1.00     1.00000      H( 1.00)
        C              4.00     1.00000      C( 1.00)

     No symmetry found



   Cartesian axes

     site n.     atom                  positions (alat units)
         1           H   tau(   1) = (   0.5395530   0.4199770   0.3615660  )
         2           H   tau(   2) = (   0.3973290   0.5020510   0.4395300  )
         3           H   tau(   3) = (   0.5592100   0.5794960   0.4431280  )
         4           H   tau(   4) = (   0.5332730   0.4331730   0.5344000  )
         5           C   tau(   5) = (   0.5073260   0.4857610   0.4428450  )

     number of k points=     1
                       cart. coord. in units 2pi/alat
        k(    1) = (   0.0000000   0.0000000   0.0000000), wk =   2.0000000

     Dense  grid:   525874 G-vectors     FFT dimensions: ( 128, 128, 128)

     Largest allocated arrays     est. size (Mb)     dimensions
        Kohn-Sham Wavefunctions         0.14 Mb     (    2354,    4)
        NL pseudopotentials             0.11 Mb     (    2354,    3)
        Each V/rho on FFT grid          1.25 Mb     (   81920)
        Each G-vector array             0.14 Mb     (   18782)
        G-vector shells                 0.02 Mb     (    2785)
     Largest temporary arrays     est. size (Mb)     dimensions
        Auxiliary wavefunctions         0.29 Mb     (    2354,   16)
        Each subspace H/S matrix        0.00 Mb     (      16,   16)
        Each <psi_i|beta_j> matrix      0.00 Mb     (       3,    4)
        Arrays for rho mixing          10.00 Mb     (   81920,    8)

     Initial potential from superposition of free atoms
     Check: negative starting charge=   -0.000385

     starting charge    7.99992, renormalised to    8.00000

     negative rho (up, down):  3.850E-04 0.000E+00
     Starting wfc are    8 randomized atomic wfcs

     total cpu time spent up to now is      109.7 secs

     per-process dynamical memory:   430.8 Mb

     Self-consistent Calculation

     iteration #  1     ecut=   110.00 Ry     beta=0.50
     Davidson diagonalization with overlap
     ethr =  1.00E-02,  avg # of iterations =  2.0

     negative rho (up, down):  1.816E-04 0.000E+00

     total cpu time spent up to now is      110.2 secs

     total energy              =     -16.01758481 Ry
     Harris-Foulkes estimate   =     -16.41480698 Ry
     estimated scf accuracy    <       0.70543374 Ry

     iteration #  2     ecut=   110.00 Ry     beta=0.50
     Davidson diagonalization with overlap
     ethr =  8.82E-03,  avg # of iterations =  2.0

     negative rho (up, down):  9.474E-05 0.000E+00

     total cpu time spent up to now is      110.7 secs

     total energy              =     -16.15248769 Ry
     Harris-Foulkes estimate   =     -16.17138471 Ry
     estimated scf accuracy    <       0.04940851 Ry

     iteration #  3     ecut=   110.00 Ry     beta=0.50
     Davidson diagonalization with overlap
     ethr =  6.18E-04,  avg # of iterations =  1.0

     negative rho (up, down):  4.818E-06 0.000E+00

     total cpu time spent up to now is      111.2 secs

     total energy              =     -16.15062473 Ry
     Harris-Foulkes estimate   =     -16.15606464 Ry
     estimated scf accuracy    <       0.01142105 Ry

     iteration #  4     ecut=   110.00 Ry     beta=0.50
     Davidson diagonalization with overlap
     ethr =  1.43E-04,  avg # of iterations =  2.0

     negative rho (up, down):  4.895E-06 0.000E+00

     total cpu time spent up to now is      111.7 secs

     total energy              =     -16.15251374 Ry
     Harris-Foulkes estimate   =     -16.15461648 Ry
     estimated scf accuracy    <       0.00486785 Ry

     iteration #  5     ecut=   110.00 Ry     beta=0.50
     Davidson diagonalization with overlap
     ethr =  6.08E-05,  avg # of iterations =  1.0

     negative rho (up, down):  1.745E-06 0.000E+00

     total cpu time spent up to now is      112.2 secs

     total energy              =     -16.15270868 Ry
     Harris-Foulkes estimate   =     -16.15291829 Ry
     estimated scf accuracy    <       0.00038389 Ry

     iteration #  6     ecut=   110.00 Ry     beta=0.50
     Davidson diagonalization with overlap
     ethr =  4.80E-06,  avg # of iterations =  3.0

     negative rho (up, down):  5.116E-08 0.000E+00

     total cpu time spent up to now is      112.9 secs

     total energy              =     -16.15292514 Ry
     Harris-Foulkes estimate   =     -16.15297406 Ry
     estimated scf accuracy    <       0.00010560 Ry

     iteration #  7     ecut=   110.00 Ry     beta=0.50
     Davidson diagonalization with overlap
     ethr =  1.32E-06,  avg # of iterations =  2.0

     total cpu time spent up to now is      113.5 secs

     total energy              =     -16.15294261 Ry
     Harris-Foulkes estimate   =     -16.15294280 Ry
     estimated scf accuracy    <       0.00000124 Ry

     iteration #  8     ecut=   110.00 Ry     beta=0.50
     Davidson diagonalization with overlap
     ethr =  1.55E-08,  avg # of iterations =  2.0

     total cpu time spent up to now is      114.0 secs

     End of self-consistent calculation

          k = 0.0000 0.0000 0.0000 ( 65842 PWs)   bands (ev):

   -16.8680  -9.4669  -9.2678  -9.0605

     highest occupied level (ev):    -9.0605

!    total energy              =     -16.15294206 Ry
     Harris-Foulkes estimate   =     -16.15294272 Ry
     estimated scf accuracy    <       0.00000091 Ry

     The total energy is the sum of the following terms:

     one-electron contribution =     -40.37009667 Ry
     hartree contribution      =      21.01151595 Ry
     xc contribution           =      -6.35516534 Ry
     ewald contribution        =       9.56080400 Ry

     convergence has been achieved in   8 iterations

     Forces acting on atoms (Ry/au):

     atom    1 type  1   force =    -0.00163107    0.00802465   -0.01053352
     atom    2 type  1   force =     0.02043452   -0.00348877   -0.00168424
     atom    3 type  1   force =     0.01516283    0.02821509   -0.00860287
     atom    4 type  1   force =    -0.00256241   -0.00425048    0.01674468
     atom    5 type  2   force =    -0.03140386   -0.02850049    0.00407596

     Total force =     0.061893     Total SCF correction =     0.000590


     entering subroutine stress ...

          total   stress  (Ry/bohr**3)                   (kbar)     P=    0.12
  -0.00000650   0.00000559  -0.00000046         -0.96      0.82     -0.07
   0.00000559   0.00000433  -0.00000286          0.82      0.64     -0.42
  -0.00000046  -0.00000286   0.00000463         -0.07     -0.42      0.68


     init_run     :     87.37s CPU     87.42s WALL (       1 calls)
     electrons    :      4.20s CPU      4.28s WALL (       1 calls)
     forces       :      0.91s CPU      0.91s WALL (       1 calls)
     stress       :      1.11s CPU      1.11s WALL (       1 calls)

     Called by init_run:
     wfcinit      :      0.11s CPU      0.11s WALL (       1 calls)
     potinit      :     25.65s CPU     25.66s WALL (       1 calls)

     Called by electrons:
     c_bands      :      2.01s CPU      2.03s WALL (       8 calls)
     sum_band     :      0.42s CPU      0.45s WALL (       8 calls)
     v_of_rho     :      1.74s CPU      1.77s WALL (       9 calls)
     mix_rho      :      0.21s CPU      0.21s WALL (       8 calls)

     Called by c_bands:
     init_us_2    :      0.04s CPU      0.04s WALL (      17 calls)
     regterg      :      1.98s CPU      1.99s WALL (       8 calls)

     Called by sum_band:

     Called by *egterg:
     h_psi        :      2.03s CPU      2.04s WALL (      24 calls)
     g_psi        :      0.01s CPU      0.01s WALL (      15 calls)
     rdiaghg      :      0.00s CPU      0.00s WALL (      23 calls)

     Called by h_psi:
     add_vuspsi   :      0.00s CPU      0.00s WALL (      24 calls)

     General routines
     calbec       :      0.86s CPU      0.86s WALL (      29 calls)
     fft          :     29.20s CPU     29.26s WALL (     106 calls)
     fftw         :      1.20s CPU      1.22s WALL (     114 calls)

     Parallel routines
     fft_scatter  :     28.73s CPU     28.78s WALL (     220 calls)

     PWSCF        :  1m55.81s CPU     1m56.02s WALL


   This run was terminated on:  18:18:21  22Sep2019            

=------------------------------------------------------------------------------=
   JOB DONE.
=------------------------------------------------------------------------------=
