5.421390056610107422e+00 1.530961990356445312e+01 1.061262035369873047e+01 7.631840229034423828e+00 1.763450026512145996e+00 5.766029834747314453e+00 1.267061996459960938e+01 3.701319932937622070e+00 1.180972003936767578e+01 7.643270015716552734e+00 2.320980072021484375e+00 8.352820396423339844e+00 1.021831989288330078e+01 5.940579891204833984e+00 1.598649978637695312e+00 5.222899913787841797e+00 1.479121971130371094e+01 6.220019817352294922e+00 7.090760231018066406e+00 6.991219997406005859e+00 3.063260078430175781e+00 1.033751964569091797e+01 1.119619965553283691e+00 1.841560006141662598e+00 5.184269905090332031e+00 2.780100107192993164e-01 2.164760112762451172e+00 4.019820213317871094e+00 4.544429779052734375e+00 1.521691989898681641e+01 4.161729812622070312e+00 3.287549972534179688e+00 1.291631984710693359e+01 1.242572021484375000e+01 5.763689994812011719e+00 6.022870063781738281e+00 1.173509955406188965e+00 5.516570091247558594e+00 1.357872009277343750e+01 1.285832023620605469e+01 1.432931995391845703e+01 8.055549621582031250e+00 3.758299946784973145e-01 5.985620021820068359e+00 2.915740013122558594e+00 1.062372016906738281e+01 4.161660194396972656e+00 1.341641998291015625e+01 8.511969566345214844e+00 5.290000140666961670e-02 2.075700014829635620e-01 3.340359926223754883e+00 7.032939910888671875e+00 1.435641956329345703e+01 2.902220010757446289e+00 1.444871997833251953e+01 1.525321960449218750e+01 9.614390373229980469e+00 9.976920127868652344e+00 1.334521961212158203e+01 7.594100236892700195e-01 8.368670463562011719e+00 1.802340030670166016e+00 1.034611988067626953e+01 1.395862007141113281e+01 8.749609947204589844e+00 1.415651988983154297e+01 1.185151958465576172e+01 1.441271972656250000e+01 6.062809944152832031e+00 1.357079982757568359e+00 1.284961986541748047e+01 1.528402042388916016e+01 2.249819993972778320e+00 6.451000213623046875e+00 1.349392032623291016e+01 1.881199926137924194e-01 1.437722015380859375e+01 6.673170089721679688e+00 2.318550109863281250e+00 1.024420022964477539e+00 1.394231986999511719e+01 1.072451972961425781e+01 1.003201961517333984e+01 1.013792037963867188e+01 5.873159885406494141e+00 1.075362014770507812e+01 3.515549898147583008e+00 8.182479858398437500e+00 1.282549977302551270e+00 1.671730041503906250e+00 4.315589904785156250e+00 6.920330047607421875e+00 1.264982032775878906e+01 7.517670154571533203e+00 1.245281982421875000e+01 1.023501968383789062e+01 1.082061958312988281e+01 5.329440116882324219e+00 8.888710021972656250e+00 4.628550052642822266e+00 8.577960014343261719e+00 8.679180145263671875e+00 1.253791999816894531e+01 6.823140144348144531e+00 1.202532005310058594e+01 1.377859950065612793e+00 1.019431972503662109e+01 1.185619950294494629e+00 1.197492027282714844e+01 3.545039892196655273e+00 5.861299991607666016e+00 1.444832038879394531e+01 1.455432033538818359e+01 1.079811954498291016e+01 3.634700059890747070e+00 6.888710021972656250e+00 7.620700001716613770e-01 1.459591960906982422e+01 4.591360092163085938e+00 2.358069896697998047e+00 1.203081989288330078e+01 1.147330045700073242e+00 1.144122028350830078e+01 1.142031955718994141e+01 9.659669876098632812e+00 4.271249771118164062e+00 7.074840068817138672e+00 3.670160055160522461e+00 5.902579784393310547e+00 9.865360260009765625e+00 1.399792003631591797e+01 1.239231967926025391e+01 1.473062038421630859e+01 1.949290037155151367e+00 1.041681957244873047e+01 6.722509860992431641e+00 1.404382038116455078e+01 5.166989803314208984e+00 4.751560211181640625e+00 5.455440044403076172e+00 7.965010166168212891e+00 9.590550422668457031e+00 1.540981960296630859e+01 6.601960182189941406e+00 4.896840095520019531e+00 1.258341979980468750e+01 3.524699926376342773e+00 1.273122024536132812e+01 6.767499923706054688e+00 1.778069972991943359e+00 1.477641963958740234e+01 1.275891971588134766e+01 7.436399936676025391e+00 6.794740200042724609e+00 7.892549991607666016e+00 1.511592006683349609e+01 8.989580154418945312e+00 1.194371986389160156e+01 6.827869892120361328e+00 4.966219902038574219e+00 1.528812026977539062e+01 1.261551952362060547e+01 4.927959918975830078e+00 5.226299762725830078e-01 1.197521972656250000e+01 2.433900117874145508e+00 1.544262027740478516e+01 9.039210319519042969e+00 8.456000089645385742e-01 1.049831962585449219e+01 1.473701953887939453e+01 1.341351985931396484e+01 9.964920043945312500e+00 1.140781974792480469e+01 1.319552040100097656e+01 4.079699993133544922e+00 4.353769779205322266e+00 7.536650180816650391e+00 1.159082031250000000e+01 3.268569946289062500e+00 1.016812038421630859e+01 1.122472000122070312e+01 9.486689567565917969e+00 1.201502037048339844e+01 1.151622009277343750e+01 1.536942005157470703e+01 9.339480400085449219e+00 7.768400192260742188e+00 1.471971988677978516e+01 1.024271965026855469e+01 3.090140104293823242e+00 8.435680389404296875e+00 8.944259643554687500e+00 9.064149856567382812e+00 6.969279766082763672e+00 1.122041988372802734e+01 8.958169937133789062e+00 1.474192047119140625e+01 1.277492046356201172e+01 1.305639982223510742e+00 4.466740131378173828e+00 8.329810142517089844e+00 7.571320056915283203e+00 7.754459857940673828e+00 1.463502025604248047e+01 5.107140064239501953e+00 1.246741962432861328e+01 1.106881999969482422e+01 1.731400012969970703e+00 1.051712036132812500e+01 8.678210258483886719e+00 2.574670076370239258e+00 8.317819595336914062e+00 2.971299886703491211e+00 1.211491966247558594e+01 3.209389925003051758e+00 2.220619916915893555e+00 6.970320224761962891e+00 1.673220038414001465e+00 6.262829780578613281e+00 5.019619941711425781e+00 7.158510208129882812e+00 3.441629886627197266e+00 3.644119977951049805e+00 7.655299901962280273e-01 1.450270056724548340e+00 1.108411979675292969e+01 9.511329650878906250e+00 4.586390018463134766e+00 4.101809978485107422e+00 1.385161972045898438e+01 2.041700035333633423e-01 1.177262020111083984e+01 3.186379909515380859e+00 1.067942047119140625e+01 4.917250156402587891e+00 3.304029941558837891e+00 2.759380102157592773e+00 3.978009939193725586e+00 5.128990173339843750e+00 1.120689988136291504e+00 8.388759613037109375e+00 1.116510033607482910e+00 7.288200259208679199e-01 8.122730255126953125e+00 5.918230056762695312e+00 8.668009757995605469e+00 5.075039863586425781e+00 7.803699970245361328e-01 5.350709915161132812e+00 9.334340095520019531e+00 1.433942031860351562e+01 6.537899971008300781e+00 1.442352008819580078e+01 1.050212001800537109e+01 1.479401969909667969e+01 5.937359809875488281e+00 9.881059646606445312e+00 1.391211986541748047e+01 1.383572006225585938e+01 1.243441963195800781e+01 9.823269844055175781e+00 1.408391952514648438e+01 7.275109767913818359e+00 1.326972007751464844e+01 1.068982028961181641e+01 1.674469947814941406e+00 7.713510036468505859e+00 1.008691978454589844e+01 1.133602046966552734e+01 8.274689674377441406e+00 5.442289829254150391e+00 1.327132034301757812e+01 6.951920032501220703e+00 2.777220010757446289e+00 8.812439918518066406e+00 7.995719909667968750e+00 1.142232036590576172e+01 3.675539970397949219e+00 1.342992019653320312e+01 1.124032020568847656e+01 4.079609870910644531e+00 1.096352005004882812e+01 8.660070419311523438e+00 8.177490234375000000e+00 7.135049819946289062e+00 3.397299945354461670e-01 1.532602024078369141e+01 4.065810203552246094e+00 1.148192024230957031e+01 1.090919971466064453e+00 3.477420091629028320e+00 2.413749933242797852e+00 2.237599939107894897e-01 9.315030097961425781e+00 1.467232036590576172e+01 1.357551956176757812e+01 9.974419593811035156e+00 5.651909828186035156e+00 6.900690078735351562e+00 1.126521968841552734e+01 1.728639960289001465e+00 2.147759914398193359e+00 8.587280273437500000e+00 6.045549869537353516e+00 1.198431968688964844e+01 1.355762004852294922e+01 1.517862033843994141e+01 1.095691967010498047e+01 9.090589523315429688e+00 8.139809608459472656e+00 4.952569961547851562e+00 5.540359973907470703e+00 8.120109558105468750e+00 1.280191993713378906e+01 1.251852035522460938e+01 6.230649948120117188e+00 3.615809917449951172e+00 4.758460044860839844e+00 1.034741973876953125e+01 5.932700157165527344e+00 1.234232044219970703e+01 1.289231967926025391e+01 1.477231979370117188e+01 1.538432025909423828e+01 2.409559965133666992e+00 1.283742046356201172e+01 1.585999965667724609e+00 7.283760070800781250e+00 5.029000043869018555e-01 6.455199718475341797e-01 7.451000064611434937e-02 1.438391971588134766e+01 6.971849918365478516e+00 8.139869689941406250e+00 1.456612014770507812e+01 2.275049924850463867e+00 3.936409950256347656e+00 7.834299802780151367e-01 1.329782009124755859e+01 7.578609943389892578e+00 1.213041973114013672e+01 7.986110210418701172e+00 5.730800032615661621e-01 1.255601978302001953e+01 4.287730216979980469e+00 3.698189973831176758e+00 4.056200087070465088e-01 1.249612045288085938e+01 1.236911964416503906e+01 8.158020019531250000e+00 9.719120025634765625e+00 3.936059951782226562e+00 1.238101959228515625e+01 7.158180236816406250e+00 9.775950431823730469e+00 3.414089918136596680e+00 1.757999956607818604e-01 4.200079917907714844e+00 8.953089714050292969e+00 6.804130077362060547e+00 5.203629970550537109e+00 1.087261962890625000e+01 1.188889980316162109e+00 1.299771976470947266e+01 6.656990051269531250e+00 7.471429824829101562e+00 1.283802032470703125e+01 7.384699821472167969e+00 1.400922012329101562e+01 2.123450040817260742e+00 1.645269989967346191e+00 3.072489976882934570e+00 1.537051963806152344e+01 4.508900165557861328e+00 1.056632041931152344e+01 8.530099987983703613e-01 1.027791976928710938e+01 1.749140024185180664e+00 4.726069927215576172e+00 2.429610013961791992e+00 1.099971961975097656e+01 1.351982021331787109e+01 6.144810199737548828e+00 1.472192001342773438e+01 1.047502040863037109e+01 7.411729812622070312e+00 2.129839897155761719e+00 4.886509895324707031e+00 1.359142017364501953e+01 3.918220043182373047e+00 1.159331989288330078e+01 7.912479877471923828e+00 1.970299959182739258e+00 7.470019817352294922e+00 4.651219844818115234e+00 1.468132019042968750e+01 1.071471977233886719e+01 7.666049957275390625e+00 7.806299924850463867e-01 5.568089962005615234e+00 1.234442043304443359e+01 3.023489952087402344e+00 1.112481975555419922e+01 7.988309860229492188e+00 3.287329912185668945e+00 8.379349708557128906e+00 9.743120193481445312e+00 5.317669868469238281e+00 2.288170099258422852e+00 4.746210098266601562e+00 1.388222026824951172e+01 6.361050128936767578e+00 6.143330097198486328e+00 7.192759990692138672e+00 3.156300067901611328e+00 1.086161994934082031e+01 1.664479970932006836e+00 1.122230052947998047e+00 1.035282039642333984e+01 6.793069839477539062e+00 2.012229919433593750e+00 5.197000026702880859e+00 1.537681961059570312e+01 7.002709865570068359e+00 7.333220005035400391e+00 6.981949806213378906e+00 2.186189889907836914e+00 1.035651969909667969e+01 1.538840055465698242e+00 2.684360027313232422e+00 4.460879802703857422e+00 2.044499963521957397e-01 2.803179979324340820e+00 3.535640001296997070e+00 8.178230285644531250e+00 7.268000125885009766e+00 4.607920169830322266e+00 2.385190010070800781e+00 1.291501998901367188e+01 1.265412044525146484e+01 5.234529972076416016e+00 5.238930225372314453e+00 5.828390121459960938e+00 1.502812004089355469e+01 2.256040096282958984e+00 4.935969829559326172e+00 4.407949924468994141e+00 1.539601993560791016e+01 4.017220020294189453e+00 3.679359912872314453e+00 1.375072002410888672e+01 1.320641994476318359e+01 6.039740085601806641e+00 6.538129806518554688e+00 1.945569992065429688e+00 6.061389923095703125e+00 1.367222023010253906e+01 1.285511970520019531e+01 1.514412021636962891e+01 7.556240081787109375e+00 8.738300204277038574e-01 6.061289787292480469e+00 3.818480014801025391e+00 1.089011955261230469e+01 3.420929908752441406e+00 1.400592041015625000e+01 1.270529985427856445e+00 4.900519847869873047e+00 1.429732036590576172e+01 1.282052040100097656e+01 1.360651969909667969e+01 7.382500171661376953e+00 1.489081954956054688e+01 6.101170063018798828e+00 2.911339998245239258e+00 1.135002040863037109e+01 4.255609989166259766e+00 1.278472042083740234e+01 8.093950271606445312e+00 1.516152000427246094e+01 1.003309965133666992e+00 3.370589971542358398e+00 7.595729827880859375e+00 1.518482017517089844e+01 2.687050104141235352e+00 1.519151973724365234e+01 3.365699946880340576e-01 1.044441986083984375e+01 9.973320007324218750e+00 1.383592033386230469e+01 9.368399620056152344e+00 3.871800005435943604e-01 4.989399909973144531e-01 3.867180109024047852e+00 7.450049877166748047e+00 1.362742042541503906e+01 3.891010046005249023e+00 1.455671977996826172e+01 1.524102020263671875e+01 8.942620277404785156e+00 1.010241985321044922e+01 1.407371997833251953e+01 5.027599930763244629e-01 7.454609870910644531e+00 2.059329986572265625e+00 9.795249938964843750e+00 1.440452003479003906e+01 9.437100410461425781e+00 1.448641967773437500e+01 1.235381984710693359e+01 1.514822006225585938e+01 5.937389850616455078e+00 6.909899711608886719e-01 1.211962032318115234e+01 1.769610047340393066e+00 8.379819869995117188e+00 1.667899966239929199e+00 1.128221988677978516e+01 1.416602039337158203e+01 8.813650131225585938e+00 1.473682022094726562e+01 1.214712047576904297e+01 1.365791988372802734e+01 6.253859996795654297e+00 7.317100167274475098e-01 1.353411960601806641e+01 1.505212020874023438e+01 2.131779909133911133e+00 5.477940082550048828e+00 1.374892044067382812e+01 2.098300009965896606e-01 1.341971969604492188e+01 7.282979965209960938e+00 1.639150023460388184e+00 6.672999858856201172e-01 3.898930072784423828e+00 5.610549926757812500e+00 1.500222015380859375e+01 5.084599852561950684e-01 2.923049926757812500e+00 6.590610027313232422e+00 1.286841964721679688e+01 1.492881965637207031e+01 1.454471969604492188e+01 1.098771953582763672e+01 8.567850112915039062e+00 6.282380104064941406e+00 1.440242004394531250e+01 1.041722011566162109e+01 9.279120445251464844e+00 1.050411987304687500e+01 5.342380046844482422e+00 1.146172046661376953e+01 3.801490068435668945e+00 7.727519989013671875e+00 2.108969926834106445e+00 2.363209962844848633e+00 3.589149951934814453e+00 7.004429817199707031e+00 1.347842025756835938e+01 7.020120143890380859e+00 1.265732002258300781e+01 9.614589691162109375e+00 6.570139884948730469e+00 1.114571952819824219e+01 4.072319984436035156e+00 8.958310127258300781e+00 1.213739991188049316e+00 1.407289981842041016e+00 4.593810081481933594e+00 7.833040237426757812e+00 1.193902015686035156e+01 7.163799762725830078e+00 1.307911968231201172e+01 2.559269905090332031e+00 3.469640016555786133e+00 1.521002006530761719e+01 8.374620437622070312e+00 5.357619762420654297e+00 8.246700286865234375e+00 8.075110435485839844e+00 1.204362010955810547e+01 7.401639938354492188e+00 1.115102005004882812e+01 1.061069965362548828e+00 1.036542034149169922e+01 9.803259849548339844e+00 1.140692043304443359e+01 5.981080055236816406e+00 9.162110328674316406e+00 4.943540096282958984e+00 9.430800437927246094e+00 1.093919992446899414e+00 6.269309997558593750e+00 9.559220314025878906e+00 1.226552009582519531e+01 1.500030040740966797e+00 9.265069961547851562e+00 9.986500144004821777e-01 1.284471988677978516e+01 4.054220199584960938e+00 5.919189929962158203e+00 1.357721996307373047e+01 1.408331966400146484e+01 1.145701980590820312e+01 4.315380096435546875e+00 6.688930034637451172e+00 4.425999894738197327e-02 1.503861999511718750e+01 3.998980045318603516e+00 3.608700037002563477e-01 1.141701984405517578e+01 3.318890094757080078e+00 6.600090026855468750e+00 1.445462036132812500e+01 1.511742019653320312e+01 1.004012012481689453e+01 3.978840112686157227e+00 7.424449920654296875e+00 1.622059941291809082e+00 1.499602031707763672e+01 4.383170127868652344e+00 2.450690031051635742e+00 1.292661952972412109e+01 6.818600296974182129e-01 1.118402004241943359e+01 1.222082042694091797e+01 9.170269966125488281e+00 3.481280088424682617e+00 6.764860153198242188e+00 4.186669826507568359e+00 6.022140026092529297e+00 9.056460380554199219e+00 1.344141960144042969e+01 2.040499925613403320e+00 1.210241985321044922e+01 2.069149971008300781e+00 1.243021965026855469e+01 1.132141971588134766e+01 9.677570343017578125e+00 4.789710044860839844e+00 7.610479831695556641e+00 4.313479900360107422e+00 6.686510086059570312e+00 9.744279861450195312e+00 1.466571998596191406e+01 1.199792003631591797e+01 1.422241973876953125e+01 1.162029981613159180e+00 1.038282012939453125e+01 5.752130031585693359e+00 1.390841960906982422e+01 6.014760017395019531e+00 4.489069938659667969e+00 5.102849960327148438e+00 7.830180168151855469e+00 1.020102024078369141e+01 6.809599995613098145e-01 1.244700029492378235e-01 1.227282047271728516e+01 1.227259993553161621e+00 9.582440376281738281e+00 6.909739971160888672e+00 1.443871974945068359e+01 4.950469970703125000e+00 5.565219879150390625e+00 4.934030055999755859e+00 8.139060020446777344e+00 8.598520278930664062e+00 2.462199926376342773e-01 7.171490192413330078e+00 4.167990207672119141e+00 1.216631984710693359e+01 2.601030111312866211e+00 1.299221992492675781e+01 6.757140159606933594e+00 1.767429947853088379e+00 1.688600033521652222e-01 1.235511970520019531e+01 6.529829978942871094e+00 6.486869812011718750e+00 7.934380054473876953e+00 5.767459869384765625e+00 4.430409908294677734e+00 1.264301967620849609e+01 3.603549957275390625e+00 1.210931968688964844e+01 7.560510158538818359e+00 2.149970054626464844e+00 1.499971961975097656e+01 1.359611988067626953e+01 1.048431968688964844e+01 2.214500010013580322e-01 5.641180038452148438e+00 1.529621982574462891e+01 9.170240402221679688e+00 1.289262008666992188e+01 6.953350067138671875e+00 4.165120124816894531e+00 3.579599857330322266e-01 1.319851970672607422e+01 5.555369853973388672e+00 2.201000042259693146e-02 1.231282043457031250e+01 3.399389982223510742e+00 2.538399994373321533e-01 1.173252010345458984e+01 1.049000024795532227e-02 2.054140090942382812e+00 7.203770160675048828e+00 4.863480091094970703e+00 1.442372035980224609e+01 1.171142005920410156e+01 5.297999858856201172e+00 6.147900223731994629e-01 1.275901985168457031e+01 1.924849987030029297e+00 1.525662040710449219e+01 8.579369544982910156e+00 1.130489945411682129e+00 9.695910453796386719e+00 1.427091979980468750e+01 1.251441955566406250e+01 9.848719596862792969e+00 1.173991966247558594e+01 1.354881954193115234e+01 3.278500080108642578e+00 5.280350208282470703e+00 7.538269996643066406e+00 1.199561977386474609e+01 9.390680313110351562e+00 1.677639961242675781e+00 1.093262004852294922e+01 1.429172039031982422e+01 1.393171977996826172e+01 9.323419570922851562e+00 1.107682037353515625e+01 1.396092033386230469e+01 4.548769950866699219e+00 4.320139884948730469e+00 6.756569862365722656e+00 1.100191974639892578e+01 9.282699584960937500e+00 1.305021953582763672e+01 7.420330047607421875e+00 9.619669914245605469e+00 1.150802040100097656e+01 1.234982013702392578e+01 1.492162036895751953e+01 9.695329666137695312e+00 6.956369876861572266e+00 1.532771968841552734e+01 9.627189636230468750e+00 2.661309957504272461e+00 3.627680063247680664e+00 9.280099868774414062e+00 1.157931995391845703e+01 1.028141975402832031e+01 1.182091999053955078e+01 1.092422008514404297e+01 1.491172027587890625e+01 8.517519950866699219e+00 7.814529895782470703e+00 1.400452041625976562e+01 1.043282032012939453e+01 2.441819906234741211e+00 9.332969665527343750e+00 9.057430267333984375e+00 8.684729576110839844e+00 6.015870094299316406e+00 1.103071975708007812e+01 8.792510032653808594e+00 1.382491970062255859e+01 6.944419860839843750e+00 8.949780464172363281e+00 4.863500118255615234e+00 7.596380233764648438e+00 8.025110244750976562e+00 8.071619987487792969e+00 8.183070182800292969e+00 8.550740242004394531e+00 7.507830142974853516e+00 1.037802028656005859e+01 9.010629653930664062e+00 1.493642044067382812e+01 1.369511985778808594e+01 1.528519988059997559e+00 1.797749996185302734e+00 1.163362026214599609e+01 1.303361988067626953e+01 6.794239997863769531e+00 1.439381980895996094e+01 5.435820102691650391e+00 1.166471958160400391e+01 1.115892028808593750e+01 2.212340116500854492e+00 7.704880237579345703e+00 6.749470233917236328e+00 6.971869945526123047e+00 7.902979850769042969e+00 2.196500062942504883e+00 1.247031974792480469e+01 8.370539665222167969e+00 1.392722034454345703e+01 5.385409832000732422e+00 1.287421989440917969e+01 1.189922046661376953e+01 1.877220034599304199e+00 1.096862030029296875e+01 8.491600036621093750e+00 3.387020111083984375e+00 9.084219932556152344e+00 3.263629913330078125e+00 1.267582035064697266e+01 2.549149990081787109e+00 1.545570015907287598e+00 7.258649826049804688e+00 1.645640015602111816e+00 7.107789993286132812e+00 5.584750175476074219e+00 7.016880035400390625e+00 2.917220115661621094e+00 2.860470056533813477e+00 7.433900237083435059e-01 1.587000012397766113e+00 1.011242008209228516e+01 3.875400066375732422e+00 2.031379938125610352e+00 7.654930114746093750e+00 1.805469989776611328e+00 5.583059787750244141e+00 5.766560077667236328e+00 3.162569999694824219e+00 1.062751960754394531e+01 1.211032009124755859e+01 1.536231994628906250e+01 9.901999831199645996e-01 1.133071994781494141e+01 1.037722015380859375e+01 4.203770160675048828e+00 4.196750164031982422e+00 1.389531993865966797e+01 1.477612018585205078e+01 1.134412002563476562e+01 3.574889898300170898e+00 1.142162036895751953e+01 5.332699775695800781e+00 3.115880012512207031e+00 2.703730106353759766e+00 4.920430183410644531e+00 9.481030464172363281e+00 5.470640182495117188e+00 4.605770111083984375e+00 1.314511966705322266e+01 6.409900188446044922e-01 1.125131988525390625e+01 2.466589927673339844e+00 1.112351989746093750e+01 4.416910171508789062e+00 3.979939937591552734e+00 3.441119909286499023e+00 3.958060026168823242e+00 6.016650199890136719e+00 1.519749999046325684e+00 8.342880249023437500e+00 1.129760026931762695e+00 1.528892040252685547e+01 7.727210044860839844e+00 6.782849788665771484e+00 8.966779708862304688e+00 4.842410087585449219e+00 1.340599954128265381e-01 4.894299983978271484e+00 1.004281997680664062e+01 5.112160205841064453e+00 7.169899940490722656e-01 9.261750221252441406e+00 6.039500236511230469e-01 1.237499952316284180e+00 7.415659904479980469e+00 1.428802013397216797e+01 1.029891967773437500e+01 1.083061981201171875e+01 5.909490108489990234e+00 1.824859976768493652e+00 1.284819960594177246e+00 1.510651969909667969e+01 6.082250118255615234e+00 1.399341964721679688e+01 1.038761997222900391e+01 1.474981975555419922e+01 6.914989948272705078e+00 9.199159622192382812e+00 1.431632041931152344e+01 1.443082046508789062e+01 1.280231952667236328e+01 9.279970169067382812e+00 1.338271999359130859e+01 1.480512046813964844e+01 7.166079998016357422e+00 1.496082019805908203e+01 1.906990051269531250e+00 3.327539920806884766e+00 2.869539976119995117e+00 9.519049644470214844e+00 1.373101997375488281e+01 1.290991973876953125e+01 1.310101985931396484e+01 1.056112003326416016e+01 1.428752040863037109e+01 7.056950092315673828e+00 1.251012039184570312e+01 1.000792026519775391e+01 1.271000027656555176e+00 8.302550315856933594e+00 9.413860321044921875e+00 7.951759815216064453e+00 4.010139942169189453e+00 3.679260015487670898e+00 1.369381999969482422e+01 7.649789810180664062e+00 3.345900058746337891e+00 8.135769844055175781e+00 1.300722026824951172e+01 1.108141994476318359e+01 2.569880008697509766e+00 8.129070281982421875e+00 1.005471992492675781e+01 1.060731983184814453e+01 1.145942020416259766e+01 4.731249809265136719e+00 1.319841957092285156e+01 7.313149929046630859e+00 1.833029985427856445e+00 8.538290023803710938e+00 8.433569908142089844e+00 1.058971977233886719e+01 3.015889883041381836e+00 1.390242004394531250e+01 1.179281997680664062e+01 4.221829891204833984e+00 1.002931976318359375e+01 8.438110351562500000e+00 7.433479785919189453e+00 6.450389862060546875e+00 2.323700040578842163e-01 9.137929916381835938e+00 8.686510086059570312e+00 1.210962009429931641e+01 4.120649814605712891e+00 1.287372016906738281e+01 1.190071964263916016e+01 3.876660108566284180e+00 1.092632007598876953e+01 9.613089561462402344e+00 8.832630157470703125e+00 6.723309993743896484e+00 9.501399993896484375e-01 3.579199910163879395e-01 3.242520093917846680e+00 1.139221954345703125e+01 8.159400224685668945e-01 4.480869770050048828e+00 2.412460088729858398e+00 1.514171981811523438e+01 1.008961963653564453e+01 1.475932025909423828e+01 1.375891971588134766e+01 1.004452037811279297e+01 4.668129920959472656e+00 2.042700052261352539e-01 4.550789833068847656e+00 1.225372028350830078e+01 3.911400139331817627e-01 1.331431961059570312e+01 8.489410400390625000e+00 3.334699869155883789e-01 8.906350135803222656e+00 6.735999882221221924e-02 1.279121971130371094e+01 9.408690452575683594e+00 5.706520080566406250e+00 5.226500034332275391e-01 8.643770217895507812e+00 1.161351966857910156e+01 2.690269947052001953e+00 9.326319694519042969e+00 5.635119915008544922e+00 1.244052028656005859e+01 1.272581958770751953e+01 1.494752025604248047e+01 1.169312000274658203e+01 8.621339797973632812e+00 8.697710037231445312e+00 7.049449920654296875e+00 1.071452045440673828e+01 2.519750118255615234e+00 1.287230014801025391e+00 8.907380104064941406e+00 6.348460197448730469e+00 1.110632038116455078e+01 1.348661994934082031e+01 1.471961975097656250e+01 1.119161987304687500e+01 1.001651954650878906e+01 8.415749549865722656e+00 4.816720008850097656e+00 5.053170204162597656e+00 7.284560203552246094e+00 1.247502040863037109e+01 1.272951984405517578e+01 5.326379776000976562e+00 3.947170019149780273e+00 4.196430206298828125e+00 1.107831954956054688e+01 6.499919891357421875e+00 1.259012031555175781e+01 1.211791992187500000e+01 4.517220020294189453e+00 5.080979824066162109e+00 8.873359680175781250e+00 1.321232032775878906e+01 1.165421962738037109e+01 6.079520225524902344e+00 2.623179912567138672e+00 4.763000011444091797e+00 1.057781982421875000e+01 6.048850059509277344e+00 1.139741992950439453e+01 1.320792007446289062e+01 1.385501956939697266e+01 1.505372047424316406e+01 2.272749900817871094e+00 1.209961986541748047e+01 2.298310041427612305e+00 7.236259937286376953e+00 1.514311981201171875e+01 5.572000145912170410e-01 1.498711967468261719e+01 5.842110157012939453e+00 8.789629936218261719e+00 6.025020122528076172e+00 1.507732009887695312e+01 3.125000000000000000e-01 1.544399976730346680e+00 1.373342037200927734e+01 1.939120054244995117e+00 7.022739887237548828e+00 9.437800049781799316e-01 1.490020036697387695e+00 1.537252044677734375e+01 1.510122013092041016e+01 6.358550071716308594e+00 8.329549789428710938e+00 1.532841968536376953e+01 2.668009996414184570e+00 3.472140073776245117e+00 4.159000143408775330e-02 1.324262046813964844e+01 7.009409904479980469e+00 1.237551975250244141e+01 8.806030273437500000e+00 8.332999795675277710e-02 1.301741981506347656e+01 3.427860021591186523e+00 3.822809934616088867e+00 1.442101955413818359e+01 1.432459950447082520e+00 3.425100088119506836e+00 5.918109893798828125e+00 1.103561973571777344e+01 1.502390027046203613e+00 1.160062026977539062e+01 7.426509857177734375e+00 1.543741989135742188e+01 1.274141979217529297e+01 4.635660171508789062e+00 2.796370029449462891e+00 7.282800078392028809e-01 1.341701984405517578e+01 1.240032005310058594e+01 8.800919532775878906e+00 1.023962020874023438e+01 4.528699874877929688e+00 1.259062004089355469e+01 7.327869892120361328e+00 1.073281955718994141e+01 3.494149923324584961e+00 1.158159971237182617e+00 4.176579952239990234e+00 1.252399981021881104e-01 1.234232044219970703e+01 1.145261955261230469e+01 8.780859947204589844e+00 9.241040229797363281e+00 3.403850078582763672e+00 1.157211971282958984e+01 6.636089801788330078e+00 9.722599983215332031e+00 4.078589916229248047e+00 1.537032032012939453e+01 4.859960079193115234e+00 8.407770156860351562e+00 6.983049869537353516e+00 4.389689922332763672e+00 1.058251953125000000e+01 2.771899998188018799e-01 1.305712032318115234e+01 7.459410190582275391e+00 7.628240108489990234e+00 1.223561954498291016e+01 7.665909767150878906e+00 1.421932029724121094e+01 3.029740095138549805e+00 9.688839912414550781e+00 7.429490089416503906e+00 5.242070198059082031e+00 1.159891986846923828e+01 1.371790051460266113e+00 1.357882022857666016e+01 6.643340110778808594e+00 6.528279781341552734e+00 1.273202037811279297e+01 7.209809780120849609e+00 1.302902030944824219e+01 2.052380084991455078e+00 1.173542022705078125e+01 7.358009815216064453e+00 5.620610237121582031e+00 4.719439983367919922e+00 1.053431987762451172e+01 1.535591983795166016e+01 1.101651954650878906e+01 2.238369941711425781e+00 5.140840053558349609e+00 1.115981960296630859e+01 8.568200111389160156e+00 1.816609978675842285e+00 1.482120037078857422e+00 3.122689962387084961e+00 8.636800050735473633e-01 3.629009962081909180e+00 1.107822036743164062e+01 7.329800128936767578e-01 9.540189743041992188e+00 2.109489917755126953e+00 5.177559852600097656e+00 1.946269989013671875e+00 1.036122035980224609e+01 1.408181953430175781e+01