-1.581694006919860840e+00 1.350152015686035156e+00 4.365180134773254395e-01 3.467299938201904297e-01 -9.410179853439331055e-01 -2.831110060214996338e-01 -1.490102052688598633e+00 -8.355759978294372559e-01 -8.799129724502563477e-01 5.449439883232116699e-01 3.536059856414794922e-01 2.296269983053207397e-01 -1.515591025352478027e+00 -2.418425083160400391e+00 3.547720015048980713e-01 -2.416220009326934814e-01 -1.821055054664611816e+00 -1.340582966804504395e+00 -4.585329890251159668e-01 -1.779820024967193604e-01 3.769561052322387695e+00 1.249642968177795410e+00 -3.022800087928771973e-01 -3.057064056396484375e+00 3.081470131874084473e-01 9.023360013961791992e-01 -1.268728017807006836e+00 -2.273408889770507812e+00 2.694164037704467773e+00 -4.704020023345947266e-01 4.734809994697570801e-01 -1.449579000473022461e+00 -3.737606048583984375e+00 -5.994409918785095215e-01 5.343310236930847168e-01 6.857360005378723145e-01 -1.566774010658264160e+00 -5.051950216293334961e-01 -1.042101979255676270e+00 2.363169938325881958e-01 -6.844789981842041016e-01 1.377491950988769531e+00 1.236560940742492676e+00 -4.671719968318939209e-01 -9.702900052070617676e-01 -1.339036941528320312e+00 1.579000032506883144e-03 7.917109727859497070e-01 -4.733040034770965576e-01 1.843910068273544312e-01 -1.513535976409912109e+00 2.226510047912597656e-01 3.635400161147117615e-02 -2.336229979991912842e-01 1.222944021224975586e+00 -3.105620145797729492e-01 -3.261399865150451660e-01 -7.477160096168518066e-01 3.953500092029571533e-01 -3.874599933624267578e-02 7.321479916572570801e-01 9.269149899482727051e-01 -8.544420003890991211e-01 -2.087640047073364258e+00 -5.018650293350219727e-01 3.291499987244606018e-02 -1.511799991130828857e-01 -9.535670280456542969e-01 -1.857869982719421387e+00 4.197699949145317078e-02 2.423360049724578857e-01 -1.307592034339904785e+00 -4.740189909934997559e-01 -5.156639814376831055e-01 5.276099964976310730e-02 6.506789922714233398e-01 1.070979952812194824e+00 3.084839880466461182e-01 1.620982050895690918e+00 1.261052012443542480e+00 -5.864009857177734375e-01 -1.407861948013305664e+00 1.770760059356689453e+00 1.025948047637939453e+00 6.546450257301330566e-01 -1.503944993019104004e+00 -1.452023983001708984e+00 -1.181874036788940430e+00 -1.522845983505249023e+00 1.244580000638961792e-01 -2.890299856662750244e-01 4.114099964499473572e-02 -1.142869964241981506e-01 -3.478730022907257080e-01 -5.568839907646179199e-01 4.113360047340393066e-01 -5.836480259895324707e-01 -9.357079863548278809e-01 4.040899872779846191e-01 3.027969896793365479e-01 -1.480049014091491699e+00 -1.076295018196105957e+00 8.370879888534545898e-01 1.904879957437515259e-01 -1.004000008106231689e-02 1.961282014846801758e+00 8.588039875030517578e-01 8.503500223159790039e-01 -1.425330042839050293e-01 4.056529998779296875e-01 4.121989905834197998e-01 -1.852115035057067871e+00 1.724710017442703247e-01 -1.073896050453186035e+00 1.048009991645812988e-01 -1.352205991744995117e+00 -1.616110056638717651e-01 -1.828771948814392090e+00 -3.600599989295005798e-02 -3.871619999408721924e-01 -1.586239933967590332e-01 5.084149837493896484e-01 -1.716704010963439941e+00 -1.261759996414184570e-01 -2.649109959602355957e-01 -2.383030056953430176e-01 -5.564230084419250488e-01 -7.782559990882873535e-01 3.931449949741363525e-01 1.566449999809265137e-01 -2.187809944152832031e-01 3.459500148892402649e-02 -1.633098959922790527e+00 -8.912999927997589111e-02 -2.053499966859817505e-02 1.758221983909606934e+00 4.052500054240226746e-02 -5.131049752235412598e-01 -1.218333005905151367e+00 9.216399788856506348e-01 -2.956599928438663483e-02 9.067400097846984863e-01 -1.066056966781616211e+00 -1.747259944677352905e-01 1.140107035636901855e+00 -3.667249977588653564e-01 -6.574599742889404297e-01 8.751829862594604492e-01 -5.626950263977050781e-01 2.325260043144226074e-01 -4.675340056419372559e-01 -5.684329867362976074e-01 -1.252321004867553711e+00 1.096866011619567871e+00 3.992510139942169189e-01 3.429889976978302002e-01 8.897690176963806152e-01 -1.368629932403564453e-01 -3.530620038509368896e-01 -7.260929942131042480e-01 6.801019906997680664e-01 1.987414002418518066e+00 1.067520007491111755e-01 -2.613629996776580811e-01 2.970609962940216064e-01 -7.919179797172546387e-01 2.145976066589355469e+00 8.948400020599365234e-01 1.427353024482727051e+00 -1.007900014519691467e-01 7.785819768905639648e-01 2.737120091915130615e-01 -2.344607114791870117e+00 1.196002006530761719e+00 -2.342569977045059204e-01 -2.086158037185668945e+00 6.252920031547546387e-01 3.223700076341629028e-02 4.534899815917015076e-02 1.123759970068931580e-01 8.943729996681213379e-01 -1.451689004898071289e+00 7.593719959259033203e-01 8.496689796447753906e-01 5.043290257453918457e-01 -2.959209978580474854e-01 7.479900121688842773e-01 2.606848955154418945e+00 -8.744909763336181641e-01 -8.054569959640502930e-01 5.450350046157836914e-01 4.810220003128051758e-01 -5.489749908447265625e-01 3.011330068111419678e-01 -1.707749962806701660e-01 1.838389933109283447e-01 2.245029956102371216e-01 -3.797950148582458496e-01 1.856029927730560303e-01 -1.300891041755676270e+00 -5.701640248298645020e-01 -3.270039856433868408e-01 1.941563963890075684e+00 -4.477750062942504883e-01 -1.782616972923278809e+00 -5.346480011940002441e-01 -3.870500028133392334e-01 4.571830034255981445e-01 -1.604943990707397461e+00 -8.912670016288757324e-01 -9.429320096969604492e-01 1.129020005464553833e-01 -1.251858949661254883e+00 1.304201960563659668e+00 1.716933012008666992e+00 -6.278889775276184082e-01 -9.310889840126037598e-01 1.394090056419372559e-01 -5.593060255050659180e-01 6.643930077552795410e-01 -1.620659977197647095e-01 1.790132999420166016e+00 -1.042011022567749023e+00 3.628689944744110107e-01 1.763378024101257324e+00 -8.169779777526855469e-01 2.145510017871856689e-01 2.744469940662384033e-01 -9.297440052032470703e-01 9.605870246887207031e-01 -6.353790163993835449e-01 6.297479867935180664e-01 -1.201275944709777832e+00 -4.719659984111785889e-01 -6.741930246353149414e-01 -1.693346977233886719e+00 -1.332188963890075684e+00 -5.154039859771728516e-01 1.637859940528869629e-01 -6.100839972496032715e-01 -3.850289881229400635e-01 4.957889914512634277e-01 -1.630604982376098633e+00 -4.323000088334083557e-03 -2.252639979124069214e-01 -8.131690025329589844e-01 -1.639368057250976562e+00 -7.524110078811645508e-01 3.430689871311187744e-01 -1.216578960418701172e+00 -1.156031966209411621e+00 3.299829959869384766e-01 -5.826069712638854980e-01 -1.134963035583496094e+00 -3.974829912185668945e-01 1.343220025300979614e-01 -1.758793950080871582e+00 9.111409783363342285e-01 -7.407469749450683594e-01 5.183399841189384460e-02 -1.309070944786071777e+00 1.865330040454864502e-01 1.344668984413146973e+00 1.221490979194641113e+00 -7.889339923858642578e-01 -7.828819751739501953e-01 -9.712679982185363770e-01 3.756110072135925293e-01 1.235008955001831055e+00 -7.196009755134582520e-01 7.892460227012634277e-01 -1.655482053756713867e+00 -1.191972017288208008e+00 7.156350016593933105e-01 7.665349841117858887e-01 -8.723200112581253052e-02 3.053260147571563721e-01 4.388720095157623291e-01 2.285527944564819336e+00 -4.182739853858947754e-01 6.600000197067856789e-04 -9.944800287485122681e-02 5.585929751396179199e-01 2.582350075244903564e-01 -1.278099976480007172e-02 -6.403949856758117676e-01 -3.463659882545471191e-01 1.995539963245391846e-01 -7.204930186271667480e-01 9.459279775619506836e-01 -2.471510022878646851e-01 -2.189785003662109375e+00 8.687800168991088867e-01 -9.360449910163879395e-01 5.970219969749450684e-01 -4.056549966335296631e-01 -1.205844998359680176e+00 9.089850187301635742e-01 4.300650060176849365e-01 -8.961439728736877441e-01 -1.039065003395080566e+00 -1.536149978637695312e-01 2.339700050652027130e-02 3.413920104503631592e-01 -9.719240069389343262e-01 3.985359966754913330e-01 -1.050809994339942932e-01 -4.391539990901947021e-01 2.961999969556927681e-03 1.915721058845520020e+00 -2.209160029888153076e-01 1.015208959579467773e+00 3.373309969902038574e-01 5.290979743003845215e-01 1.628140062093734741e-01 2.510659992694854736e-01 2.771039903163909912e-01 1.785999978892505169e-03 -1.768497943878173828e+00 -4.978200048208236694e-02 9.350870251655578613e-01 -3.301669955253601074e-01 -9.940999560058116913e-03 5.149180293083190918e-01 7.113630175590515137e-01 3.910579979419708252e-01 1.127279996871948242e-01 -1.350785017013549805e+00 6.467499732971191406e-01 3.536759912967681885e-01 -1.179960966110229492e+00 -1.142351984977722168e+00 5.116200074553489685e-02 -4.346739947795867920e-01 2.430000007152557373e-01 -8.136299848556518555e-01 -8.679739832878112793e-01 -7.344930171966552734e-01 6.358300149440765381e-02 1.283782005310058594e+00 2.533940076828002930e-01 1.409538030624389648e+00 1.826370060443878174e-01 3.418799862265586853e-02 6.096429824829101562e-01 -3.761030137538909912e-01 -1.104630008339881897e-01 2.474700063467025757e-01 -2.720249891281127930e-01 -6.085150241851806641e-01 3.169279992580413818e-01 -3.782179951667785645e-01 1.280774950981140137e+00 1.272346973419189453e+00 1.085891008377075195e+00 9.217150211334228516e-01 -4.815779924392700195e-01 -4.008069932460784912e-01 -2.098280042409896851e-01 -3.810330033302307129e-01 -1.044800043106079102e+00 -5.328739881515502930e-01 -6.583800166845321655e-02 -1.159623980522155762e+00 8.796110153198242188e-01 -1.436064958572387695e+00 5.836259722709655762e-01 1.822852015495300293e+00 -4.325900077819824219e-01 -2.610900104045867920e-01 -6.973999738693237305e-02 -3.086929917335510254e-01 9.136819839477539062e-01 4.302040040493011475e-01 -1.440340995788574219e+00 -8.031179904937744141e-01 4.810149967670440674e-01 -1.450824975967407227e+00 2.529927015304565430e+00 -6.485300064086914062e-01 -1.127599000930786133e+00 2.323500066995620728e-02 1.055842041969299316e+00 -1.524419933557510376e-01 1.811004996299743652e+00 -1.336833000183105469e+00 -2.164389938116073608e-01 -2.061659991741180420e-01 7.982209920883178711e-01 -8.683899790048599243e-02 6.110619902610778809e-01 -4.973300173878669739e-02 -1.154000014066696167e-01 -3.657320141792297363e-01 4.881010055541992188e-01 -5.585800111293792725e-02 8.549000322818756104e-02 -1.935870051383972168e-01 3.810720145702362061e-01 1.897169947624206543e-01 1.801880002021789551e-01 2.497729957103729248e-01 6.175709962844848633e-01 7.763299942016601562e-01 9.930409789085388184e-01 -3.520820140838623047e-01 -1.368548035621643066e+00 2.370830029249191284e-01 1.279775023460388184e+00 1.302780985832214355e+00 -6.957629919052124023e-01 2.733249962329864502e-01 1.724207997322082520e+00 6.077110171318054199e-01 2.245199978351593018e-01 -2.213030010461807251e-01 -2.575480043888092041e-01 -4.486469924449920654e-01 -3.595210015773773193e-01 1.498816967010498047e+00 3.343409895896911621e-01 1.021932005882263184e+00 1.069295048713684082e+00 -2.340070009231567383e-01 -3.822499886155128479e-02 6.603419780731201172e-01 5.912020206451416016e-01 1.792539954185485840e-01 -3.543859958648681641e+00 -5.098199844360351562e-02 1.106111049652099609e+00 1.732512950897216797e+00 -3.748840093612670898e-01 -4.904929995536804199e-01 7.470020055770874023e-01 4.228990077972412109e-01 -3.288950026035308838e-01 6.437499821186065674e-02 -3.578300029039382935e-02 9.366829991340637207e-01 5.651999711990356445e-01 5.309460163116455078e-01 -1.385820060968399048e-01 -8.096050024032592773e-01 4.876299947500228882e-02 -3.873910009860992432e-01 1.674869954586029053e-01 1.695976018905639648e+00 6.467799842357635498e-02 2.721709907054901123e-01 -1.277240067720413208e-01 6.898970007896423340e-01 2.491117954254150391e+00 3.191489875316619873e-01 -1.593420058488845825e-01 5.670199915766716003e-02 1.401198029518127441e+00 1.424319028854370117e+00 3.618000075221061707e-02 -1.116800028830766678e-02 1.300807952880859375e+00 -4.985350072383880615e-01 -7.645000219345092773e-01 1.762499958276748657e-01 -2.100699953734874725e-02 1.943449974060058594e-01 1.214289963245391846e-01 -1.078500002622604370e-01 3.284699842333793640e-02 -1.398380994796752930e+00 1.027318000793457031e+00 8.636000007390975952e-02 -3.588440120220184326e-01 -5.480139851570129395e-01 -9.898669719696044922e-01 1.009800005704164505e-02 5.768970251083374023e-01 1.220536947250366211e+00 -5.588309764862060547e-01 -5.363799929618835449e-01 -5.074900016188621521e-02 -8.127239942550659180e-01 7.553210258483886719e-01 1.928270012140274048e-01 -1.061559990048408508e-01 -7.730799913406372070e-02 -8.684870004653930664e-01 7.966880202293395996e-01 7.060679793357849121e-01 9.738799929618835449e-01 -1.532849967479705811e-01 1.139700040221214294e-02 2.078109979629516602e-01 2.984549999237060547e-01 6.122040152549743652e-01 -3.722459971904754639e-01 -3.118459880352020264e-01 3.710190057754516602e-01 -4.567100107669830322e-02 -5.386379957199096680e-01 -3.068529963493347168e-01 -4.279999993741512299e-04 -4.722700119018554688e-01 -1.060940027236938477e-01 4.842549860477447510e-01 -5.133489966392517090e-01 4.211089909076690674e-01 5.785160064697265625e-01 -2.620900049805641174e-02 -2.212360054254531860e-01 3.321389853954315186e-01 9.674010276794433594e-01 1.911465048789978027e+00 -3.169539868831634521e-01 4.638380110263824463e-01 -5.644450187683105469e-01 -8.412920236587524414e-01 -1.157260015606880188e-01 1.983470022678375244e-01 1.374408006668090820e+00 7.933750152587890625e-01 -1.109900046139955521e-02 -1.936099976301193237e-01 -1.555009931325912476e-01 -3.153089880943298340e-01 8.161900192499160767e-02 -9.660289883613586426e-01 1.723309993743896484e+00 3.737500011920928955e-01 3.226520121097564697e-01 8.620800077915191650e-02 -5.264530181884765625e-01 -2.745200097560882568e-01 -1.027560010552406311e-01 8.656500279903411865e-02 4.769799858331680298e-02 -3.642600029706954956e-02 3.287839889526367188e-01 -2.482180118560791016e+00 1.984899938106536865e-01 -4.701799899339675903e-02 8.512570261955261230e-01 -3.505559861660003662e-01 -2.337500080466270447e-02 -5.446230173110961914e-01 -9.603999555110931396e-03 -2.906939983367919922e-01 7.219510078430175781e-01 1.371019005775451660e+00 1.484616994857788086e+00 -1.255789995193481445e+00 -1.835706949234008789e+00 1.165710017085075378e-01 -2.461770027875900269e-01 2.674779891967773438e-01 4.436299949884414673e-02 -2.014800012111663818e-01 2.054290026426315308e-01 2.401169985532760620e-01 1.155600044876337051e-02 2.346210032701492310e-01 -5.949680209159851074e-01 5.392959713935852051e-01 4.060420095920562744e-01 -8.098250031471252441e-01 1.515288949012756348e+00 7.448400259017944336e-01 6.454169750213623047e-01 1.792134046554565430e+00 -2.027640044689178467e-01 9.230700135231018066e-02 6.596899777650833130e-02 1.415100041776895523e-02 7.159159779548645020e-01 4.073579907417297363e-01 -8.750780224800109863e-01 -8.223869800567626953e-01 -5.336520075798034668e-01 5.357139706611633301e-01 -9.990550279617309570e-01 1.294980049133300781e+00 -5.860379934310913086e-01 -3.923450112342834473e-01 -5.455699935555458069e-02 4.819329977035522461e-01 -1.662376046180725098e+00 -5.025830268859863281e-01 -3.379909992218017578e-01 -4.273779988288879395e-01 3.061540126800537109e-01 4.642859995365142822e-01 8.931030035018920898e-01 3.661850094795227051e-01 1.749305009841918945e+00 1.489599980413913727e-02 -4.917869865894317627e-01 7.062609791755676270e-01 -2.585400044918060303e-01 -2.527219951152801514e-01 -8.120549917221069336e-01 -2.960610091686248779e-01 -8.058599829673767090e-01 -8.301590085029602051e-01 -7.810799777507781982e-02 -1.877650022506713867e-01 -5.581979751586914062e-01 -1.182579994201660156e-01 9.459660053253173828e-01 2.423720061779022217e-01 1.818025946617126465e+00 -9.102799892425537109e-01 6.612390279769897461e-01 5.116090178489685059e-01 9.214929938316345215e-01 7.555869817733764648e-01 1.701956033706665039e+00 9.302999824285507202e-02 1.519502997398376465e+00 4.772410094738006592e-01 3.596319854259490967e-01 1.267269998788833618e-01 5.153239965438842773e-01 4.445919990539550781e-01 -1.909800022840499878e-01 1.133100036531686783e-02 -7.469409704208374023e-01 7.483389973640441895e-01 1.703399978578090668e-02 2.808409929275512695e-01 -1.641280055046081543e-01 -2.849300019443035126e-02 1.945929974317550659e-01 -3.802489936351776123e-01 -1.266800016164779663e-01 3.320429921150207520e-01 2.634350061416625977e-01 -4.140900075435638428e-02 4.137350022792816162e-01 6.972529888153076172e-01 -3.074949979782104492e-01 -2.735400013625621796e-02 3.166989982128143311e-01 1.839649975299835205e-01 8.323180079460144043e-01 2.824339866638183594e-01 -4.483909904956817627e-01 6.275600194931030273e-02 -6.229929924011230469e-01 8.681089878082275391e-01 1.876659989356994629e-01 2.171020060777664185e-01 2.634109854698181152e-01 -6.914229989051818848e-01 -4.248800128698348999e-02 9.507039785385131836e-01 -6.522619724273681641e-01 -5.376170277595520020e-01 -2.660830020904541016e-01 4.470129907131195068e-01 7.269849777221679688e-01 -2.609130144119262695e-01 7.851549983024597168e-01 3.874669969081878662e-01 -1.745216012001037598e+00 7.638429999351501465e-01 7.780029773712158203e-01 1.677490025758743286e-01 -4.961650073528289795e-01 2.179280072450637817e-01 -5.389850139617919922e-01 1.287984967231750488e+00 -3.953450024127960205e-01 2.656309902667999268e-01 5.106369853019714355e-01 3.881869912147521973e-01 -7.891790270805358887e-01 3.290379941463470459e-01 1.829790025949478149e-01 -4.814819991588592529e-01 1.025694012641906738e+00 -1.298761963844299316e+00 -1.389902949333190918e+00 -8.537909984588623047e-01 1.857350021600723267e-01 -1.405887961387634277e+00 -4.828099906444549561e-01 3.192349970340728760e-01 1.315599977970123291e-01 3.242189884185791016e-01 -5.062109827995300293e-01 7.774580121040344238e-01 -4.427179992198944092e-01 2.343831062316894531e+00 -3.002719879150390625e-01 1.817595958709716797e+00 -3.791829943656921387e-01 5.507599934935569763e-02 -2.440470010042190552e-01 -3.669700026512145996e-02 1.861609965562820435e-01 -5.028259754180908203e-01 -9.552399814128875732e-02 -1.222039982676506042e-01 -1.818879991769790649e-01 -1.823090016841888428e-01 -3.342939913272857666e-01 -1.325883984565734863e+00 -6.121479868888854980e-01 2.209500074386596680e-01 -3.353649973869323730e-01 -6.690000183880329132e-03 2.072740048170089722e-01 -5.771430134773254395e-01 -1.662883043289184570e+00 1.079410016536712646e-01 2.797400057315826416e-01 1.678590029478073120e-01 9.990929961204528809e-01 -9.279230237007141113e-01 -3.188759982585906982e-01 -4.216719865798950195e-01 7.674670219421386719e-01 -4.843020141124725342e-01 7.218009829521179199e-01 8.422610163688659668e-01 4.685539901256561279e-01 9.601759910583496094e-01 9.783570170402526855e-01 -2.061779975891113281e+00 -1.009659990668296814e-01 7.942000031471252441e-02 -3.224489986896514893e-01 -1.032966017723083496e+00 -7.720069885253906250e-01 -4.430629909038543701e-01 -1.411391973495483398e+00 1.633332967758178711e+00 -1.712618947029113770e+00 -7.104570269584655762e-01 7.899259924888610840e-01 1.264788985252380371e+00 -1.555809974670410156e-01 -1.349660009145736694e-01 2.387800067663192749e-01 -4.959650039672851562e-01 -3.459590077400207520e-01 -8.099199831485748291e-02 -4.092400148510932922e-02 -4.636090099811553955e-01 -2.213139981031417847e-01 1.137270033359527588e-01 3.253960013389587402e-01 2.539600133895874023e-01 7.756279706954956055e-01 -1.121391057968139648e+00 -5.287839770317077637e-01 -3.283349871635437012e-01 1.191974997520446777e+00 -1.078526973724365234e+00 -7.058240175247192383e-01 -8.585999719798564911e-03 6.876009702682495117e-01 -9.973949790000915527e-01 -2.543976068496704102e+00 6.381099820137023926e-01 -2.065899968147277832e-01 2.789199911057949066e-02 6.312099844217300415e-02 7.578989863395690918e-01 5.663299933075904846e-02 7.297000288963317871e-02 9.872899949550628662e-02 -7.615800201892852783e-02 2.942899987101554871e-02 -7.811110019683837891e-01 2.123299986124038696e-02 -3.162899985909461975e-02 -3.648220002651214600e-01 -1.397042036056518555e+00 3.908419907093048096e-01 -4.046599864959716797e-01 -1.461659967899322510e-01 5.347599834203720093e-02 -4.566560089588165283e-01 8.309199661016464233e-02 8.072300255298614502e-02 5.320580005645751953e-01 5.823919773101806641e-01 3.994350135326385498e-01 1.755769997835159302e-01 -1.171025991439819336e+00 9.784470200538635254e-01 1.610093951225280762e+00 5.202699899673461914e-01 -1.803500056266784668e-01 -1.656854033470153809e+00 -3.300279974937438965e-01 8.491520285606384277e-01 2.435979992151260376e-01 1.389420032501220703e-01 -1.097013950347900391e+00 -7.773280143737792969e-01 -1.206994056701660156e+00 7.203860282897949219e-01 -3.211100101470947266e-01 1.678619980812072754e-01 4.175330102443695068e-01 1.295601010322570801e+00 1.970057964324951172e+00 -8.648800104856491089e-02 8.483409881591796875e-01 -1.633660048246383667e-01 1.226081013679504395e+00 -3.747139871120452881e-01 -3.506680130958557129e-01 -1.776089966297149658e-01 -4.115509986877441406e-01 -8.873099833726882935e-02 -5.763300135731697083e-02 4.122389853000640869e-01 -3.130000084638595581e-03 -1.176339030265808105e+00 3.485899865627288818e-01 -1.736769974231719971e-01 -1.397155046463012695e+00 1.537660062313079834e-01 -6.956890225410461426e-01 8.125399798154830933e-02 1.322921991348266602e+00 -8.330799639225006104e-02 3.847840130329132080e-01 -3.416289985179901123e-01 -2.224500030279159546e-01 -7.800689935684204102e-01 -3.257029950618743896e-01 -1.777539998292922974e-01 -4.094789922237396240e-01 7.452909946441650391e-01 4.448899924755096436e-01 -4.629110097885131836e-01 1.022493004798889160e+00 -3.905319869518280029e-01 7.138399779796600342e-02 3.146750032901763916e-01 5.682629942893981934e-01 3.977349996566772461e-01 1.148771047592163086e+00 1.613049983978271484e+00 1.611449956893920898e+00 -1.939440071582794189e-01 4.080500081181526184e-02 1.094887018203735352e+00 1.441999990493059158e-02 -5.859569907188415527e-01 -2.916700020432472229e-02 -5.599120259284973145e-01 5.285279750823974609e-01 -2.991220057010650635e-01 -4.846040010452270508e-01 -1.885329931974411011e-01 -3.542740046977996826e-01 8.193160295486450195e-01 4.731410145759582520e-01 8.839000016450881958e-03 5.342379808425903320e-01 6.547330021858215332e-01 -4.900899901986122131e-02 9.221999906003475189e-03 2.274640053510665894e-01 5.192649960517883301e-01 1.874510049819946289e+00 6.644690036773681641e-01 -9.663959741592407227e-01 1.773061037063598633e+00 1.317821025848388672e+00 -8.769069910049438477e-01 1.754299923777580261e-02 -7.939500212669372559e-01 1.340160965919494629e+00 -4.239699989557266235e-02 -4.023689925670623779e-01 4.559940099716186523e-01 4.802210032939910889e-01 -8.269839882850646973e-01 5.240979790687561035e-01 -1.533051967620849609e+00 -1.260020017623901367e+00 6.757169961929321289e-01 2.044280022382736206e-01 -6.872200220823287964e-02 4.673700034618377686e-02 1.403850018978118896e-01 1.551959961652755737e-01 -4.848589897155761719e-01 -1.938180029392242432e-01 1.234999969601631165e-01 -3.212909996509552002e-01 2.461339980363845825e-01 -7.433720231056213379e-01 -7.384160161018371582e-01 2.868770062923431396e-01 1.087844967842102051e+00 5.808560252189636230e-01 1.520020008087158203e+00 4.534500092267990112e-02 1.104660987854003906e+00 3.574720025062561035e-01 -8.948100358247756958e-02 1.434571981430053711e+00 -7.344080209732055664e-01 -6.297600269317626953e-01 -4.568029940128326416e-01 6.767359972000122070e-01 9.139270186424255371e-01 1.048472046852111816e+00 -4.948549866676330566e-01 -8.639600127935409546e-02 5.737999826669692993e-02 5.724470019340515137e-01 -4.438709914684295654e-01 -4.925540089607238770e-01 -5.767340064048767090e-01 -4.671739935874938965e-01 -8.166499733924865723e-01 2.528179883956909180e-01 -3.250080049037933350e-01 -2.849029898643493652e-01 -8.297300338745117188e-02 -5.492519736289978027e-01 6.138809919357299805e-01 6.341779828071594238e-01 8.982610106468200684e-01 -8.747659921646118164e-01 -2.458339929580688477e-01 -8.625700324773788452e-02 1.123461961746215820e+00 1.934240013360977173e-01 6.025729775428771973e-01 -6.822050213813781738e-01 -2.620300054550170898e-01 1.759520024061203003e-01 -2.737599983811378479e-02 -6.743799895048141479e-02 -6.527519822120666504e-01 -5.550979971885681152e-01 6.375210285186767578e-01 1.044690012931823730e-01 -2.673780024051666260e-01 -2.584120035171508789e-01 -7.064869999885559082e-01 -1.071486949920654297e+00 6.847959756851196289e-01 -2.485180050134658813e-01 9.057799726724624634e-02 -3.696259856224060059e-01 6.291899830102920532e-02 7.452870011329650879e-01 4.147529900074005127e-01 -4.151940047740936279e-01 -2.029500007629394531e-01 3.887439966201782227e-01 -1.181056022644042969e+00 1.598339974880218506e-01 5.850499868392944336e-01 -1.029615044593811035e+00 5.398470163345336914e-01 -5.826640129089355469e-01 9.556090235710144043e-01 3.722789883613586426e-01 3.101870119571685791e-01 -9.942799806594848633e-02 8.103749752044677734e-01 4.817790091037750244e-01 9.795899689197540283e-02 8.772899955511093140e-02 3.708010017871856689e-01 -1.607950031757354736e-01 -2.610859870910644531e-01 2.019030004739761353e-01 -1.799139976501464844e-01 1.181597948074340820e+00 -7.713419795036315918e-01 -4.079920053482055664e-01 -2.676999894902110100e-03 -8.158029913902282715e-01 3.905149996280670166e-01 1.012839972972869873e-01 -4.228079915046691895e-01 6.310369968414306641e-01 -2.213249951601028442e-01 3.346669971942901611e-01 7.056300342082977295e-02 6.326799839735031128e-02 -1.518187046051025391e+00 -7.098999805748462677e-03 -7.656250000000000000e-01 4.549489915370941162e-01 4.873999953269958496e-02 5.370460152626037598e-01 -8.115100115537643433e-02 6.994040012359619141e-01 4.964889883995056152e-01 -1.809699982404708862e-01 2.225539982318878174e-01 -3.550539910793304443e-01 -4.826210141181945801e-01 6.198599934577941895e-02 -1.397839933633804321e-01 9.140100330114364624e-02 -1.485410034656524658e-01 -1.288210004568099976e-01 -3.929359912872314453e-01 4.937140047550201416e-01 -1.798300072550773621e-02 2.719649970531463623e-01 -1.791359931230545044e-01 2.228800058364868164e-01 -5.974999815225601196e-02 -2.514840066432952881e-01 -4.973899945616722107e-02 -1.339360028505325317e-01 -5.844499915838241577e-02 -1.010280027985572815e-01 2.291589975357055664e-01 -8.904730081558227539e-01 2.755430042743682861e-01 1.607094049453735352e+00 1.938340067863464355e-01 -9.350439906120300293e-01 2.065699920058250427e-02 2.608790099620819092e-01 -3.949170112609863281e-01 -7.678229808807373047e-01 1.241270005702972412e-01 -3.085210025310516357e-01 1.286502957344055176e+00 -7.916759848594665527e-01 -1.398900002241134644e-01 6.826320290565490723e-01 9.745000302791595459e-02 4.046120047569274902e-01 -5.365560054779052734e-01 -1.950200088322162628e-02 6.327030062675476074e-01 3.734709918498992920e-01 4.723900184035301208e-02 1.430670022964477539e-01 -3.776339888572692871e-01 3.441030085086822510e-01 1.915200054645538330e-01 2.042679935693740845e-01 9.105780124664306641e-01 -3.711679875850677490e-01 7.130540013313293457e-01 -8.163470029830932617e-01 1.848080009222030640e-01 5.889170169830322266e-01 5.872520208358764648e-01 -5.840240120887756348e-01 -1.452864050865173340e+00 -2.250600047409534454e-02 -1.350564002990722656e+00 -1.280319988727569580e-01 1.603800058364868164e-02 -7.611010074615478516e-01 4.438300132751464844e-01 2.319629937410354614e-01 -4.595159888267517090e-01 2.225929945707321167e-01 1.084280014038085938e-01 1.307979971170425415e-01 8.113499879837036133e-01 5.263410210609436035e-01 -6.765799969434738159e-02 -9.298399835824966431e-02 1.564240008592605591e-01 -4.050459861755371094e-01 4.269599914550781250e-02 -2.280630022287368774e-01 3.944720029830932617e-01 2.930879890918731689e-01 6.240779757499694824e-01 7.842999696731567383e-02 -3.508090078830718994e-01 -2.821649909019470215e-01 -4.150319993495941162e-01 -7.259680032730102539e-01 -1.050600036978721619e-01 1.311240047216415405e-01 -1.453499961644411087e-02 -1.617850065231323242e-01 -1.776780039072036743e-01 1.151710003614425659e-01 1.532920002937316895e-01 -2.898599952459335327e-02 8.268659710884094238e-01 -7.953450083732604980e-01 -1.023450970649719238e+00 -5.530610084533691406e-01 -4.947389960289001465e-01 6.363540291786193848e-01 3.361499905586242676e-01 -2.538790106773376465e-01 6.527550220489501953e-01 -8.475500345230102539e-02 3.217490017414093018e-01 3.984139859676361084e-01 1.178020015358924866e-01 -7.118139863014221191e-01 5.643529891967773438e-01 -1.419119983911514282e-01 6.611070036888122559e-01 2.091159969568252563e-01 4.595600068569183350e-02 -1.507769972085952759e-01 6.467149853706359863e-01 5.685650110244750977e-01 7.050259709358215332e-01 -1.880889981985092163e-01 8.645480275154113770e-01 -3.212760090827941895e-01 8.075090050697326660e-01 -4.182949960231781006e-01 -2.369060039520263672e+00 2.684090137481689453e-01 1.017469987273216248e-01 1.364299952983856201e-01 9.022500365972518921e-02 -2.379789948463439941e-01 6.137959957122802734e-01 -2.948600053787231445e-02 7.205320000648498535e-01 -5.886070132255554199e-01 1.369840055704116821e-01 -1.554590016603469849e-01 -1.045060008764266968e-01 -5.856499820947647095e-02 -1.107900030910968781e-02 -3.570200130343437195e-02 2.789439857006072998e-01 -6.809999793767929077e-02 4.575000107288360596e-01 6.978729963302612305e-01 3.573360145092010498e-01 7.583899796009063721e-02 1.393159985542297363e+00 -2.310792922973632812e+00 6.836040019989013672e-01 1.043581008911132812e+00 -4.008420109748840332e-01 3.589969873428344727e-01 -3.981989920139312744e-01