1.536987304687500000e+01 0.000000000000000000e+00 0.000000000000000000e+00 0.000000000000000000e+00 1.536987304687500000e+01 0.000000000000000000e+00 0.000000000000000000e+00 0.000000000000000000e+00 1.536987304687500000e+01
1.651038169860839844e+01 0.000000000000000000e+00 0.000000000000000000e+00 0.000000000000000000e+00 1.651038169860839844e+01 0.000000000000000000e+00 0.000000000000000000e+00 0.000000000000000000e+00 1.651038169860839844e+01
1.555740356445312500e+01 0.000000000000000000e+00 0.000000000000000000e+00 0.000000000000000000e+00 1.555740356445312500e+01 0.000000000000000000e+00 0.000000000000000000e+00 0.000000000000000000e+00 1.555740356445312500e+01
1.540704154968261719e+01 0.000000000000000000e+00 0.000000000000000000e+00 0.000000000000000000e+00 1.540704154968261719e+01 0.000000000000000000e+00 0.000000000000000000e+00 0.000000000000000000e+00 1.540704154968261719e+01
1.632190132141113281e+01 0.000000000000000000e+00 0.000000000000000000e+00 0.000000000000000000e+00 1.632190132141113281e+01 0.000000000000000000e+00 0.000000000000000000e+00 0.000000000000000000e+00 1.632190132141113281e+01
1.558528900146484375e+01 0.000000000000000000e+00 0.000000000000000000e+00 0.000000000000000000e+00 1.558528900146484375e+01 0.000000000000000000e+00 0.000000000000000000e+00 0.000000000000000000e+00 1.558528900146484375e+01
1.551090812683105469e+01 0.000000000000000000e+00 0.000000000000000000e+00 0.000000000000000000e+00 1.551090812683105469e+01 0.000000000000000000e+00 0.000000000000000000e+00 0.000000000000000000e+00 1.551090812683105469e+01
1.621430587768554688e+01 0.000000000000000000e+00 0.000000000000000000e+00 0.000000000000000000e+00 1.621430587768554688e+01 0.000000000000000000e+00 0.000000000000000000e+00 0.000000000000000000e+00 1.621430587768554688e+01
1.658227348327636719e+01 0.000000000000000000e+00 0.000000000000000000e+00 0.000000000000000000e+00 1.658227348327636719e+01 0.000000000000000000e+00 0.000000000000000000e+00 0.000000000000000000e+00 1.658227348327636719e+01
1.558353996276855469e+01 0.000000000000000000e+00 0.000000000000000000e+00 0.000000000000000000e+00 1.558353996276855469e+01 0.000000000000000000e+00 0.000000000000000000e+00 0.000000000000000000e+00 1.558353996276855469e+01
1.653100585937500000e+01 0.000000000000000000e+00 0.000000000000000000e+00 0.000000000000000000e+00 1.653100585937500000e+01 0.000000000000000000e+00 0.000000000000000000e+00 0.000000000000000000e+00 1.653100585937500000e+01
1.598739528656005859e+01 0.000000000000000000e+00 0.000000000000000000e+00 0.000000000000000000e+00 1.598739528656005859e+01 0.000000000000000000e+00 0.000000000000000000e+00 0.000000000000000000e+00 1.598739528656005859e+01
1.546240329742431641e+01 0.000000000000000000e+00 0.000000000000000000e+00 0.000000000000000000e+00 1.546240329742431641e+01 0.000000000000000000e+00 0.000000000000000000e+00 0.000000000000000000e+00 1.546240329742431641e+01
1.544773197174072266e+01 0.000000000000000000e+00 0.000000000000000000e+00 0.000000000000000000e+00 1.544773197174072266e+01 0.000000000000000000e+00 0.000000000000000000e+00 0.000000000000000000e+00 1.544773197174072266e+01
1.645975875854492188e+01 0.000000000000000000e+00 0.000000000000000000e+00 0.000000000000000000e+00 1.645975875854492188e+01 0.000000000000000000e+00 0.000000000000000000e+00 0.000000000000000000e+00 1.645975875854492188e+01
1.632949447631835938e+01 0.000000000000000000e+00 0.000000000000000000e+00 0.000000000000000000e+00 1.632949447631835938e+01 0.000000000000000000e+00 0.000000000000000000e+00 0.000000000000000000e+00 1.632949447631835938e+01
1.651026916503906250e+01 0.000000000000000000e+00 0.000000000000000000e+00 0.000000000000000000e+00 1.651026916503906250e+01 0.000000000000000000e+00 0.000000000000000000e+00 0.000000000000000000e+00 1.651026916503906250e+01
1.650129318237304688e+01 0.000000000000000000e+00 0.000000000000000000e+00 0.000000000000000000e+00 1.650129318237304688e+01 0.000000000000000000e+00 0.000000000000000000e+00 0.000000000000000000e+00 1.650129318237304688e+01
1.552458381652832031e+01 0.000000000000000000e+00 0.000000000000000000e+00 0.000000000000000000e+00 1.552458381652832031e+01 0.000000000000000000e+00 0.000000000000000000e+00 0.000000000000000000e+00 1.552458381652832031e+01
1.684825325012207031e+01 0.000000000000000000e+00 0.000000000000000000e+00 0.000000000000000000e+00 1.684825325012207031e+01 0.000000000000000000e+00 0.000000000000000000e+00 0.000000000000000000e+00 1.684825325012207031e+01
1.538530063629150391e+01 0.000000000000000000e+00 0.000000000000000000e+00 0.000000000000000000e+00 1.538530063629150391e+01 0.000000000000000000e+00 0.000000000000000000e+00 0.000000000000000000e+00 1.538530063629150391e+01
1.627946281433105469e+01 0.000000000000000000e+00 0.000000000000000000e+00 0.000000000000000000e+00 1.627946281433105469e+01 0.000000000000000000e+00 0.000000000000000000e+00 0.000000000000000000e+00 1.627946281433105469e+01
1.691716384887695312e+01 0.000000000000000000e+00 0.000000000000000000e+00 0.000000000000000000e+00 1.691716384887695312e+01 0.000000000000000000e+00 0.000000000000000000e+00 0.000000000000000000e+00 1.691716384887695312e+01
1.639194297790527344e+01 0.000000000000000000e+00 0.000000000000000000e+00 0.000000000000000000e+00 1.639194297790527344e+01 0.000000000000000000e+00 0.000000000000000000e+00 0.000000000000000000e+00 1.639194297790527344e+01
1.624794578552246094e+01 0.000000000000000000e+00 0.000000000000000000e+00 0.000000000000000000e+00 1.624794578552246094e+01 0.000000000000000000e+00 0.000000000000000000e+00 0.000000000000000000e+00 1.624794578552246094e+01
1.623768043518066406e+01 0.000000000000000000e+00 0.000000000000000000e+00 0.000000000000000000e+00 1.623768043518066406e+01 0.000000000000000000e+00 0.000000000000000000e+00 0.000000000000000000e+00 1.623768043518066406e+01
1.556098937988281250e+01 0.000000000000000000e+00 0.000000000000000000e+00 0.000000000000000000e+00 1.556098937988281250e+01 0.000000000000000000e+00 0.000000000000000000e+00 0.000000000000000000e+00 1.556098937988281250e+01
1.675044441223144531e+01 0.000000000000000000e+00 0.000000000000000000e+00 0.000000000000000000e+00 1.675044441223144531e+01 0.000000000000000000e+00 0.000000000000000000e+00 0.000000000000000000e+00 1.675044441223144531e+01
1.538491630554199219e+01 0.000000000000000000e+00 0.000000000000000000e+00 0.000000000000000000e+00 1.538491630554199219e+01 0.000000000000000000e+00 0.000000000000000000e+00 0.000000000000000000e+00 1.538491630554199219e+01
1.626725006103515625e+01 0.000000000000000000e+00 0.000000000000000000e+00 0.000000000000000000e+00 1.626725006103515625e+01 0.000000000000000000e+00 0.000000000000000000e+00 0.000000000000000000e+00 1.626725006103515625e+01
1.623646736145019531e+01 0.000000000000000000e+00 0.000000000000000000e+00 0.000000000000000000e+00 1.623646736145019531e+01 0.000000000000000000e+00 0.000000000000000000e+00 0.000000000000000000e+00 1.623646736145019531e+01
1.548482894897460938e+01 0.000000000000000000e+00 0.000000000000000000e+00 0.000000000000000000e+00 1.548482894897460938e+01 0.000000000000000000e+00 0.000000000000000000e+00 0.000000000000000000e+00 1.548482894897460938e+01
1.559043598175048828e+01 0.000000000000000000e+00 0.000000000000000000e+00 0.000000000000000000e+00 1.559043598175048828e+01 0.000000000000000000e+00 0.000000000000000000e+00 0.000000000000000000e+00 1.559043598175048828e+01
1.554457473754882812e+01 0.000000000000000000e+00 0.000000000000000000e+00 0.000000000000000000e+00 1.554457473754882812e+01 0.000000000000000000e+00 0.000000000000000000e+00 0.000000000000000000e+00 1.554457473754882812e+01
1.549518203735351562e+01 0.000000000000000000e+00 0.000000000000000000e+00 0.000000000000000000e+00 1.549518203735351562e+01 0.000000000000000000e+00 0.000000000000000000e+00 0.000000000000000000e+00 1.549518203735351562e+01
1.640298461914062500e+01 0.000000000000000000e+00 0.000000000000000000e+00 0.000000000000000000e+00 1.640298461914062500e+01 0.000000000000000000e+00 0.000000000000000000e+00 0.000000000000000000e+00 1.640298461914062500e+01
1.534009552001953125e+01 0.000000000000000000e+00 0.000000000000000000e+00 0.000000000000000000e+00 1.534009552001953125e+01 0.000000000000000000e+00 0.000000000000000000e+00 0.000000000000000000e+00 1.534009552001953125e+01
1.544189834594726562e+01 0.000000000000000000e+00 0.000000000000000000e+00 0.000000000000000000e+00 1.544189834594726562e+01 0.000000000000000000e+00 0.000000000000000000e+00 0.000000000000000000e+00 1.544189834594726562e+01
1.643836021423339844e+01 0.000000000000000000e+00 0.000000000000000000e+00 0.000000000000000000e+00 1.643836021423339844e+01 0.000000000000000000e+00 0.000000000000000000e+00 0.000000000000000000e+00 1.643836021423339844e+01
1.630981826782226562e+01 0.000000000000000000e+00 0.000000000000000000e+00 0.000000000000000000e+00 1.630981826782226562e+01 0.000000000000000000e+00 0.000000000000000000e+00 0.000000000000000000e+00 1.630981826782226562e+01
1.659629631042480469e+01 0.000000000000000000e+00 0.000000000000000000e+00 0.000000000000000000e+00 1.659629631042480469e+01 0.000000000000000000e+00 0.000000000000000000e+00 0.000000000000000000e+00 1.659629631042480469e+01
1.556932353973388672e+01 0.000000000000000000e+00 0.000000000000000000e+00 0.000000000000000000e+00 1.556932353973388672e+01 0.000000000000000000e+00 0.000000000000000000e+00 0.000000000000000000e+00 1.556932353973388672e+01
1.545647621154785156e+01 0.000000000000000000e+00 0.000000000000000000e+00 0.000000000000000000e+00 1.545647621154785156e+01 0.000000000000000000e+00 0.000000000000000000e+00 0.000000000000000000e+00 1.545647621154785156e+01
1.662451171875000000e+01 0.000000000000000000e+00 0.000000000000000000e+00 0.000000000000000000e+00 1.662451171875000000e+01 0.000000000000000000e+00 0.000000000000000000e+00 0.000000000000000000e+00 1.662451171875000000e+01
1.572334575653076172e+01 0.000000000000000000e+00 0.000000000000000000e+00 0.000000000000000000e+00 1.572334575653076172e+01 0.000000000000000000e+00 0.000000000000000000e+00 0.000000000000000000e+00 1.572334575653076172e+01
1.696791267395019531e+01 0.000000000000000000e+00 0.000000000000000000e+00 0.000000000000000000e+00 1.696791267395019531e+01 0.000000000000000000e+00 0.000000000000000000e+00 0.000000000000000000e+00 1.696791267395019531e+01
1.661339187622070312e+01 0.000000000000000000e+00 0.000000000000000000e+00 0.000000000000000000e+00 1.661339187622070312e+01 0.000000000000000000e+00 0.000000000000000000e+00 0.000000000000000000e+00 1.661339187622070312e+01
1.544053554534912109e+01 0.000000000000000000e+00 0.000000000000000000e+00 0.000000000000000000e+00 1.544053554534912109e+01 0.000000000000000000e+00 0.000000000000000000e+00 0.000000000000000000e+00 1.544053554534912109e+01
1.669439125061035156e+01 0.000000000000000000e+00 0.000000000000000000e+00 0.000000000000000000e+00 1.669439125061035156e+01 0.000000000000000000e+00 0.000000000000000000e+00 0.000000000000000000e+00 1.669439125061035156e+01
1.546526145935058594e+01 0.000000000000000000e+00 0.000000000000000000e+00 0.000000000000000000e+00 1.546526145935058594e+01 0.000000000000000000e+00 0.000000000000000000e+00 0.000000000000000000e+00 1.546526145935058594e+01
1.665126991271972656e+01 0.000000000000000000e+00 0.000000000000000000e+00 0.000000000000000000e+00 1.665126991271972656e+01 0.000000000000000000e+00 0.000000000000000000e+00 0.000000000000000000e+00 1.665126991271972656e+01
1.646923828125000000e+01 0.000000000000000000e+00 0.000000000000000000e+00 0.000000000000000000e+00 1.646923828125000000e+01 0.000000000000000000e+00 0.000000000000000000e+00 0.000000000000000000e+00 1.646923828125000000e+01
1.679295158386230469e+01 0.000000000000000000e+00 0.000000000000000000e+00 0.000000000000000000e+00 1.679295158386230469e+01 0.000000000000000000e+00 0.000000000000000000e+00 0.000000000000000000e+00 1.679295158386230469e+01
1.644984245300292969e+01 0.000000000000000000e+00 0.000000000000000000e+00 0.000000000000000000e+00 1.644984245300292969e+01 0.000000000000000000e+00 0.000000000000000000e+00 0.000000000000000000e+00 1.644984245300292969e+01
1.541715621948242188e+01 0.000000000000000000e+00 0.000000000000000000e+00 0.000000000000000000e+00 1.541715621948242188e+01 0.000000000000000000e+00 0.000000000000000000e+00 0.000000000000000000e+00 1.541715621948242188e+01
1.670759391784667969e+01 0.000000000000000000e+00 0.000000000000000000e+00 0.000000000000000000e+00 1.670759391784667969e+01 0.000000000000000000e+00 0.000000000000000000e+00 0.000000000000000000e+00 1.670759391784667969e+01
1.672817039489746094e+01 0.000000000000000000e+00 0.000000000000000000e+00 0.000000000000000000e+00 1.672817039489746094e+01 0.000000000000000000e+00 0.000000000000000000e+00 0.000000000000000000e+00 1.672817039489746094e+01
1.541349124908447266e+01 0.000000000000000000e+00 0.000000000000000000e+00 0.000000000000000000e+00 1.541349124908447266e+01 0.000000000000000000e+00 0.000000000000000000e+00 0.000000000000000000e+00 1.541349124908447266e+01
1.554598236083984375e+01 0.000000000000000000e+00 0.000000000000000000e+00 0.000000000000000000e+00 1.554598236083984375e+01 0.000000000000000000e+00 0.000000000000000000e+00 0.000000000000000000e+00 1.554598236083984375e+01
1.635969924926757812e+01 0.000000000000000000e+00 0.000000000000000000e+00 0.000000000000000000e+00 1.635969924926757812e+01 0.000000000000000000e+00 0.000000000000000000e+00 0.000000000000000000e+00 1.635969924926757812e+01
1.556329917907714844e+01 0.000000000000000000e+00 0.000000000000000000e+00 0.000000000000000000e+00 1.556329917907714844e+01 0.000000000000000000e+00 0.000000000000000000e+00 0.000000000000000000e+00 1.556329917907714844e+01
1.543283081054687500e+01 0.000000000000000000e+00 0.000000000000000000e+00 0.000000000000000000e+00 1.543283081054687500e+01 0.000000000000000000e+00 0.000000000000000000e+00 0.000000000000000000e+00 1.543283081054687500e+01
1.627498626708984375e+01 0.000000000000000000e+00 0.000000000000000000e+00 0.000000000000000000e+00 1.627498626708984375e+01 0.000000000000000000e+00 0.000000000000000000e+00 0.000000000000000000e+00 1.627498626708984375e+01
1.534628963470458984e+01 0.000000000000000000e+00 0.000000000000000000e+00 0.000000000000000000e+00 1.534628963470458984e+01 0.000000000000000000e+00 0.000000000000000000e+00 0.000000000000000000e+00 1.534628963470458984e+01
1.532880496978759766e+01 0.000000000000000000e+00 0.000000000000000000e+00 0.000000000000000000e+00 1.532880496978759766e+01 0.000000000000000000e+00 0.000000000000000000e+00 0.000000000000000000e+00 1.532880496978759766e+01
1.533443927764892578e+01 0.000000000000000000e+00 0.000000000000000000e+00 0.000000000000000000e+00 1.533443927764892578e+01 0.000000000000000000e+00 0.000000000000000000e+00 0.000000000000000000e+00 1.533443927764892578e+01
1.677720451354980469e+01 0.000000000000000000e+00 0.000000000000000000e+00 0.000000000000000000e+00 1.677720451354980469e+01 0.000000000000000000e+00 0.000000000000000000e+00 0.000000000000000000e+00 1.677720451354980469e+01
1.545397090911865234e+01 0.000000000000000000e+00 0.000000000000000000e+00 0.000000000000000000e+00 1.545397090911865234e+01 0.000000000000000000e+00 0.000000000000000000e+00 0.000000000000000000e+00 1.545397090911865234e+01
1.672185707092285156e+01 0.000000000000000000e+00 0.000000000000000000e+00 0.000000000000000000e+00 1.672185707092285156e+01 0.000000000000000000e+00 0.000000000000000000e+00 0.000000000000000000e+00 1.672185707092285156e+01
1.541271209716796875e+01 0.000000000000000000e+00 0.000000000000000000e+00 0.000000000000000000e+00 1.541271209716796875e+01 0.000000000000000000e+00 0.000000000000000000e+00 0.000000000000000000e+00 1.541271209716796875e+01
1.672784423828125000e+01 0.000000000000000000e+00 0.000000000000000000e+00 0.000000000000000000e+00 1.672784423828125000e+01 0.000000000000000000e+00 0.000000000000000000e+00 0.000000000000000000e+00 1.672784423828125000e+01
1.650715255737304688e+01 0.000000000000000000e+00 0.000000000000000000e+00 0.000000000000000000e+00 1.650715255737304688e+01 0.000000000000000000e+00 0.000000000000000000e+00 0.000000000000000000e+00 1.650715255737304688e+01
1.632846641540527344e+01 0.000000000000000000e+00 0.000000000000000000e+00 0.000000000000000000e+00 1.632846641540527344e+01 0.000000000000000000e+00 0.000000000000000000e+00 0.000000000000000000e+00 1.632846641540527344e+01
1.624703598022460938e+01 0.000000000000000000e+00 0.000000000000000000e+00 0.000000000000000000e+00 1.624703598022460938e+01 0.000000000000000000e+00 0.000000000000000000e+00 0.000000000000000000e+00 1.624703598022460938e+01
1.647138404846191406e+01 0.000000000000000000e+00 0.000000000000000000e+00 0.000000000000000000e+00 1.647138404846191406e+01 0.000000000000000000e+00 0.000000000000000000e+00 0.000000000000000000e+00 1.647138404846191406e+01
1.651443290710449219e+01 0.000000000000000000e+00 0.000000000000000000e+00 0.000000000000000000e+00 1.651443290710449219e+01 0.000000000000000000e+00 0.000000000000000000e+00 0.000000000000000000e+00 1.651443290710449219e+01
1.549843978881835938e+01 0.000000000000000000e+00 0.000000000000000000e+00 0.000000000000000000e+00 1.549843978881835938e+01 0.000000000000000000e+00 0.000000000000000000e+00 0.000000000000000000e+00 1.549843978881835938e+01
1.553808212280273438e+01 0.000000000000000000e+00 0.000000000000000000e+00 0.000000000000000000e+00 1.553808212280273438e+01 0.000000000000000000e+00 0.000000000000000000e+00 0.000000000000000000e+00 1.553808212280273438e+01
1.553598022460937500e+01 0.000000000000000000e+00 0.000000000000000000e+00 0.000000000000000000e+00 1.553598022460937500e+01 0.000000000000000000e+00 0.000000000000000000e+00 0.000000000000000000e+00 1.553598022460937500e+01
1.548212718963623047e+01 0.000000000000000000e+00 0.000000000000000000e+00 0.000000000000000000e+00 1.548212718963623047e+01 0.000000000000000000e+00 0.000000000000000000e+00 0.000000000000000000e+00 1.548212718963623047e+01
1.527247714996337891e+01 0.000000000000000000e+00 0.000000000000000000e+00 0.000000000000000000e+00 1.527247714996337891e+01 0.000000000000000000e+00 0.000000000000000000e+00 0.000000000000000000e+00 1.527247714996337891e+01
1.533287048339843750e+01 0.000000000000000000e+00 0.000000000000000000e+00 0.000000000000000000e+00 1.533287048339843750e+01 0.000000000000000000e+00 0.000000000000000000e+00 0.000000000000000000e+00 1.533287048339843750e+01
1.640351676940917969e+01 0.000000000000000000e+00 0.000000000000000000e+00 0.000000000000000000e+00 1.640351676940917969e+01 0.000000000000000000e+00 0.000000000000000000e+00 0.000000000000000000e+00 1.640351676940917969e+01
1.553523254394531250e+01 0.000000000000000000e+00 0.000000000000000000e+00 0.000000000000000000e+00 1.553523254394531250e+01 0.000000000000000000e+00 0.000000000000000000e+00 0.000000000000000000e+00 1.553523254394531250e+01
1.629509544372558594e+01 0.000000000000000000e+00 0.000000000000000000e+00 0.000000000000000000e+00 1.629509544372558594e+01 0.000000000000000000e+00 0.000000000000000000e+00 0.000000000000000000e+00 1.629509544372558594e+01
1.626858520507812500e+01 0.000000000000000000e+00 0.000000000000000000e+00 0.000000000000000000e+00 1.626858520507812500e+01 0.000000000000000000e+00 0.000000000000000000e+00 0.000000000000000000e+00 1.626858520507812500e+01
1.544405937194824219e+01 0.000000000000000000e+00 0.000000000000000000e+00 0.000000000000000000e+00 1.544405937194824219e+01 0.000000000000000000e+00 0.000000000000000000e+00 0.000000000000000000e+00 1.544405937194824219e+01
1.556444835662841797e+01 0.000000000000000000e+00 0.000000000000000000e+00 0.000000000000000000e+00 1.556444835662841797e+01 0.000000000000000000e+00 0.000000000000000000e+00 0.000000000000000000e+00 1.556444835662841797e+01
1.642173576354980469e+01 0.000000000000000000e+00 0.000000000000000000e+00 0.000000000000000000e+00 1.642173576354980469e+01 0.000000000000000000e+00 0.000000000000000000e+00 0.000000000000000000e+00 1.642173576354980469e+01
1.549693870544433594e+01 0.000000000000000000e+00 0.000000000000000000e+00 0.000000000000000000e+00 1.549693870544433594e+01 0.000000000000000000e+00 0.000000000000000000e+00 0.000000000000000000e+00 1.549693870544433594e+01
1.552995681762695312e+01 0.000000000000000000e+00 0.000000000000000000e+00 0.000000000000000000e+00 1.552995681762695312e+01 0.000000000000000000e+00 0.000000000000000000e+00 0.000000000000000000e+00 1.552995681762695312e+01
1.668047142028808594e+01 0.000000000000000000e+00 0.000000000000000000e+00 0.000000000000000000e+00 1.668047142028808594e+01 0.000000000000000000e+00 0.000000000000000000e+00 0.000000000000000000e+00 1.668047142028808594e+01
1.544991779327392578e+01 0.000000000000000000e+00 0.000000000000000000e+00 0.000000000000000000e+00 1.544991779327392578e+01 0.000000000000000000e+00 0.000000000000000000e+00 0.000000000000000000e+00 1.544991779327392578e+01
1.550921535491943359e+01 0.000000000000000000e+00 0.000000000000000000e+00 0.000000000000000000e+00 1.550921535491943359e+01 0.000000000000000000e+00 0.000000000000000000e+00 0.000000000000000000e+00 1.550921535491943359e+01
1.680137062072753906e+01 0.000000000000000000e+00 0.000000000000000000e+00 0.000000000000000000e+00 1.680137062072753906e+01 0.000000000000000000e+00 0.000000000000000000e+00 0.000000000000000000e+00 1.680137062072753906e+01
1.555244731903076172e+01 0.000000000000000000e+00 0.000000000000000000e+00 0.000000000000000000e+00 1.555244731903076172e+01 0.000000000000000000e+00 0.000000000000000000e+00 0.000000000000000000e+00 1.555244731903076172e+01
1.565984916687011719e+01 0.000000000000000000e+00 0.000000000000000000e+00 0.000000000000000000e+00 1.565984916687011719e+01 0.000000000000000000e+00 0.000000000000000000e+00 0.000000000000000000e+00 1.565984916687011719e+01
1.544208049774169922e+01 0.000000000000000000e+00 0.000000000000000000e+00 0.000000000000000000e+00 1.544208049774169922e+01 0.000000000000000000e+00 0.000000000000000000e+00 0.000000000000000000e+00 1.544208049774169922e+01
1.653894233703613281e+01 0.000000000000000000e+00 0.000000000000000000e+00 0.000000000000000000e+00 1.653894233703613281e+01 0.000000000000000000e+00 0.000000000000000000e+00 0.000000000000000000e+00 1.653894233703613281e+01
1.662063980102539062e+01 0.000000000000000000e+00 0.000000000000000000e+00 0.000000000000000000e+00 1.662063980102539062e+01 0.000000000000000000e+00 0.000000000000000000e+00 0.000000000000000000e+00 1.662063980102539062e+01
