8.823609948158264160e-01 8.206299692392349243e-02 -3.905580043792724609e-01 -1.525573968887329102e+00 8.746700286865234375e-01 1.212290003895759583e-01 -4.114800095558166504e-01 -3.335465908050537109e+00 1.439185023307800293e+00 -1.217895984649658203e+00 9.318630099296569824e-01 2.972363948822021484e+00 6.661620140075683594e-01 7.324330210685729980e-01 4.434770047664642334e-01 -5.999029874801635742e-01 2.036850005388259888e-01 -1.545889973640441895e+00 -1.664530992507934570e+00 -8.088060021400451660e-01 1.887850016355514526e-01 1.012204051017761230e+00 -2.516072988510131836e+00 6.893209815025329590e-01 -7.906609773635864258e-01 1.452564954757690430e+00 3.924070000648498535e-01 9.844999760389328003e-02 -7.373390197753906250e-01 2.186390012502670288e-01 -1.861059963703155518e-01 -1.032083988189697266e+00 2.162390053272247314e-01 2.095000028610229492e+00 -1.793190002441406250e+00 -1.762139946222305298e-01 1.392758011817932129e+00 -1.037657976150512695e+00 -2.446999996900558472e-01 1.162783026695251465e+00 3.305529952049255371e-01 6.800299882888793945e-01 -4.734509885311126709e-01 8.792600035667419434e-02 -3.839780092239379883e-01 -9.200270175933837891e-01 -8.604729771614074707e-01 -2.301352977752685547e+00 -4.168599843978881836e-02 8.055900037288665771e-02 -8.496239781379699707e-01 -1.433261990547180176e+00 -1.987030982971191406e+00 -1.207069993019104004e+00 1.669930070638656616e-01 1.439031958580017090e+00 7.771400362253189087e-02 -1.462440043687820435e-01 -9.547500014305114746e-01 1.514181971549987793e+00 2.753500044345855713e-01 -6.343439817428588867e-01 3.174650073051452637e-01 -1.843531012535095215e+00 1.139114022254943848e+00 -1.551159024238586426e+00 5.413789749145507812e-01 -2.567969858646392822e-01 -2.909780144691467285e-01 -1.383080035448074341e-01 1.100878953933715820e+00 1.721003055572509766e+00 1.074278950691223145e+00 1.274119973182678223e+00 -7.921000011265277863e-03 -4.560779929161071777e-01 -6.148329973220825195e-01 -3.571540117263793945e-01 1.938318014144897461e+00 4.033060073852539062e-01 -1.899430006742477417e-01 -7.298820018768310547e-01 2.463076114654541016e+00 1.089786052703857422e+00 6.144700050354003906e-01 -8.094400167465209961e-01 1.424177050590515137e+00 1.566995978355407715e+00 3.423349857330322266e-01 -1.228225946426391602e+00 1.434834003448486328e+00 -9.319700300693511963e-02 7.777739763259887695e-01 -5.034530162811279297e-01 -5.307639837265014648e-01 8.321750164031982422e-01 -1.320796012878417969e+00 5.922629833221435547e-01 8.355360031127929688e-01 1.234759986400604248e-01 2.807720899581909180e+00 -1.611127018928527832e+00 -1.126093983650207520e+00 -4.985657215118408203e+00 2.058361053466796875e+00 1.071302056312561035e+00 1.744518041610717773e+00 -1.715332984924316406e+00 2.375809997320175171e-01 -5.573999881744384766e-01 -1.858379989862442017e-01 1.868235945701599121e+00 -1.634148001670837402e+00 2.223176956176757812e+00 7.519220113754272461e-01 2.031784057617187500e+00 -5.835360288619995117e-01 4.680840075016021729e-01 1.645218014717102051e+00 1.789829969406127930e+00 -9.323650002479553223e-01 1.091161966323852539e+00 1.218669056892395020e+00 -3.793019950389862061e-01 -2.622411012649536133e+00 -3.742550015449523926e-01 8.247780203819274902e-01 6.289669871330261230e-01 1.548776984214782715e+00 -8.837299793958663940e-02 1.004495024681091309e+00 1.630000025033950806e-02 -3.203240036964416504e-01 4.318279922008514404e-01 1.590762019157409668e+00 7.599629759788513184e-01 7.040870189666748047e-01 -2.423239946365356445e+00 -7.598199695348739624e-02 -6.288530230522155762e-01 -2.082459926605224609e-01 -5.225039720535278320e-01 1.058037042617797852e+00 2.670919895172119141e-01 -1.448119044303894043e+00 1.664775967597961426e+00 7.424899935722351074e-01 -1.239489987492561340e-01 7.750650048255920410e-01 4.040500149130821228e-02 7.572140097618103027e-01 -1.206519961357116699e+00 -1.156031012535095215e+00 -5.934029817581176758e-01 2.171799987554550171e-01 -5.668630003929138184e-01 -7.188399881124496460e-02 1.656661033630371094e+00 9.095360040664672852e-01 9.200800061225891113e-01 -9.013710021972656250e-01 -9.249809980392456055e-01 2.676039934158325195e-01 4.923940002918243408e-01 -2.854160070419311523e-01 1.354202985763549805e+00 -1.688493967056274414e+00 -7.517380118370056152e-01 -1.080970019102096558e-01 7.256990075111389160e-01 -1.367143988609313965e+00 1.144832015037536621e+00 1.163619980216026306e-01 2.912900038063526154e-02 -8.250460028648376465e-01 -1.887719035148620605e+00 2.467511892318725586e+00 9.520199894905090332e-01 6.267309784889221191e-01 -3.829079866409301758e-01 2.585470080375671387e-01 -1.221315979957580566e+00 -2.415809929370880127e-01 4.432240128517150879e-01 9.805549979209899902e-01 -3.252519965171813965e-01 5.393549799919128418e-01 -1.709507942199707031e+00 1.750590056180953979e-01 1.139655947685241699e+00 -7.242999970912933350e-03 -1.008099969476461411e-02 -8.438180088996887207e-01 -5.972899794578552246e-01 5.657719969749450684e-01 -2.026730030775070190e-01 3.267289996147155762e-01 1.495296001434326172e+00 -2.840872049331665039e+00 9.705560207366943359e-01 -4.789449870586395264e-01 5.754839777946472168e-01 2.201430052518844604e-01 1.690829992294311523e-01 -6.329060196876525879e-01 3.547900021076202393e-01 -6.810789704322814941e-01 6.573460102081298828e-01 -2.475689947605133057e-01 8.743800222873687744e-02 1.145838975906372070e+00 -7.611700147390365601e-02 7.462270259857177734e-01 2.279804944992065430e+00 4.929700121283531189e-02 2.164109945297241211e-01 7.511749863624572754e-01 1.270309984683990479e-01 -1.495999991893768311e-01 2.408349961042404175e-01 4.526489973068237305e-01 5.711799860000610352e-02 -7.573829889297485352e-01 -2.665329873561859131e-01 1.161072015762329102e+00 1.474909931421279907e-01 9.613810181617736816e-01 -5.720970034599304199e-01 -9.664999693632125854e-02 -2.700780034065246582e-01 1.441380977630615234e+00 1.339056015014648438e+00 4.839200153946876526e-02 5.084450244903564453e-01 4.236829876899719238e-01 -6.841019988059997559e-01 -3.548119962215423584e-01 -5.211259722709655762e-01 -9.277199953794479370e-02 1.397119045257568359e+00 1.317770034074783325e-01 -2.115010023117065430e-01 -7.450450062751770020e-01 1.713963985443115234e+00 -1.119223952293395996e+00 -1.446522951126098633e+00 -1.751927018165588379e+00 9.870600104331970215e-01 -5.570499897003173828e-01 -1.420052051544189453e+00 3.390699923038482666e-01 -1.662449002265930176e+00 3.176549971103668213e-01 2.802839875221252441e-01 -9.693499654531478882e-02 -1.256625056266784668e+00 6.508560180664062500e-01 5.546699762344360352e-01 3.237870037555694580e-01 -1.842699944972991943e-02 1.225370019674301147e-01 -2.397196054458618164e+00 -6.383429765701293945e-01 -1.835965991020202637e+00 1.969391942024230957e+00 1.011509969830513000e-01 -1.469344973564147949e+00 -7.803109884262084961e-01 3.405370116233825684e-01 4.697569906711578369e-01 2.792690098285675049e-01 -4.488129913806915283e-01 -1.894560009241104126e-01 5.515630245208740234e-01 4.164945125579833984e+00 -1.175186038017272949e+00 3.189420104026794434e-01 -1.479583978652954102e+00 4.062069952487945557e-01 -4.343810081481933594e-01 3.857569992542266846e-01 -8.820600062608718872e-02 1.224454998970031738e+00 -9.886959791183471680e-01 2.392199933528900146e-01 -5.767900124192237854e-02 -1.097470000386238098e-01 -1.117900967597961426e+00 1.846780031919479370e-01 -5.699999928474426270e-01 -8.740500211715698242e-01 5.621499940752983093e-02 -9.395840167999267578e-01 -1.085945010185241699e+00 8.138859868049621582e-01 -3.571706056594848633e+00 1.864680051803588867e-01 7.969699800014495850e-02 -3.279860019683837891e-01 -8.058609962463378906e-01 -1.113965034484863281e+00 -7.478870153427124023e-01 7.997320294380187988e-01 -4.171029925346374512e-01 6.657729744911193848e-01 2.249223947525024414e+00 2.727299928665161133e-02 1.460890054702758789e+00 4.503610134124755859e-01 1.374927997589111328e+00 -4.488939940929412842e-01 -1.102486968040466309e+00 6.256179809570312500e-01 1.996618032455444336e+00 -3.376989960670471191e-01 -4.314010143280029297e-01 5.268099904060363770e-01 -1.027102947235107422e+00 2.172500081360340118e-02 -5.344910025596618652e-01 -1.134699940681457520e+00 -5.221229791641235352e-01 -2.132805109024047852e+00 -1.126783013343811035e+00 1.802199929952621460e-01 -4.147379994392395020e-01 2.149297952651977539e+00 2.111002922058105469e+00 8.366510272026062012e-01 -2.847302913665771484e+00 -6.707550287246704102e-01 9.990829825401306152e-01 -1.414970040321350098e+00 6.062330007553100586e-01 -7.923579812049865723e-01 -3.236230015754699707e-01 -7.214620113372802734e-01 9.985290169715881348e-01 3.216469883918762207e-01 -1.265069007873535156e+00 1.089115023612976074e+00 -8.152080178260803223e-01 4.407800137996673584e-01 -7.871519923210144043e-01 -2.417110055685043335e-01 1.782785058021545410e+00 6.521300226449966431e-02 -8.783360123634338379e-01 -4.881800115108489990e-01 -5.113360285758972168e-01 -1.065757036209106445e+00 6.327990293502807617e-01 2.114859968423843384e-01 -9.870900213718414307e-02 1.797423958778381348e+00 -1.233904957771301270e+00 6.589180231094360352e-01 7.725600004196166992e-01 -4.142079949378967285e-01 7.709249854087829590e-01 4.113079905509948730e-01 1.213402032852172852e+00 5.258700251579284668e-01 -8.418869972229003906e-01 -2.804920077323913574e-01 1.494074940681457520e+00 9.127470254898071289e-01 -1.494614958763122559e+00 3.816680014133453369e-01 4.015789926052093506e-01 8.928500115871429443e-02 2.143899947404861450e-01 2.684690058231353760e-01 1.008381009101867676e+00 9.688119888305664062e-01 8.905079960823059082e-01 -2.224548101425170898e+00 1.282117962837219238e+00 -7.908000051975250244e-02 -1.920199990272521973e+00 -1.787150055170059204e-01 5.206360220909118652e-01 8.564899861812591553e-02 1.832069039344787598e+00 1.371099948883056641e-01 -1.401939988136291504e-01 2.430099993944168091e-01 1.073660030961036682e-01 -1.438229978084564209e-01 -9.332110285758972168e-01 7.448299974203109741e-02 8.707789778709411621e-01 -1.479257941246032715e+00 1.091539978981018066e+00 -3.678349852561950684e-01 -2.723846912384033203e+00 -1.125156998634338379e+00 -2.224999964237213135e-01 4.774369895458221436e-01 8.474130034446716309e-01 -6.999750137329101562e-01 8.989149928092956543e-01 2.096469998359680176e-01 2.318165063858032227e+00 2.766290009021759033e-01 4.781400039792060852e-02 -2.900640070438385010e-01 7.430200278759002686e-02 -2.979190051555633545e-01 4.503099992871284485e-02 4.763160049915313721e-01 1.436789989471435547e+00 -2.210800051689147949e-01 6.486570239067077637e-01 1.444569975137710571e-01 1.624509990215301514e-01 -4.908449947834014893e-01 -1.390107989311218262e+00 1.915941953659057617e+00 1.012148976325988770e+00 -4.218289852142333984e-01 -6.668109893798828125e-01 -7.375479936599731445e-01 -3.960419893264770508e-01 5.432000011205673218e-02 1.468929946422576904e-01 1.331707954406738281e+00 3.506940007209777832e-01 1.285189986228942871e-01 3.410440087318420410e-01 5.109410285949707031e-01 -1.781520962715148926e+00 1.010462999343872070e+00 -8.691790103912353516e-01 2.605300024151802063e-02 3.902899846434593201e-02 -2.265100032091140747e-01 -1.494410037994384766e-01 4.459379911422729492e-01 -3.715400025248527527e-02 1.614940017461776733e-01 -8.755720257759094238e-01 1.576717972755432129e+00 5.461609959602355957e-01 -3.803260028362274170e-01 -4.799169898033142090e-01 -3.765450119972229004e-01 3.413999825716018677e-02 -1.477500051259994507e-01 -4.374879896640777588e-01 -3.510490059852600098e-01 4.765909910202026367e-01 -7.308040261268615723e-01 -1.077836036682128906e+00 -9.196600317955017090e-02 -2.898389995098114014e-01 6.588889956474304199e-01 2.009370028972625732e-01 -5.541899800300598145e-01 -6.935449838638305664e-01 -1.710339933633804321e-01 -5.809959769248962402e-01 -1.037729978561401367e-01 6.275489926338195801e-01 3.143019974231719971e-01 1.173100948333740234e+00 6.227250099182128906e-01 2.437186956405639648e+00 -2.259574890136718750e+00 5.879849791526794434e-01 5.868890285491943359e-01 -5.172349810600280762e-01 -2.993569970130920410e-01 1.109999953769147396e-03 1.462730020284652710e-01 -3.952839970588684082e-01 -4.780310094356536865e-01 -1.812900006771087646e-01 1.131929978728294373e-01 -1.392620056867599487e-01 3.118570148944854736e-01 -2.993740141391754150e-01 1.116495966911315918e+00 -3.149619996547698975e-01 1.385171055793762207e+00 4.102700054645538330e-01 -1.267400011420249939e-02 -1.313369989395141602e+00 1.256120055913925171e-01 1.598560065031051636e-01 1.598920941352844238e+00 -1.055076003074645996e+00 -2.228150069713592529e-01 -4.446600005030632019e-02 -2.762359976768493652e-01 1.540513992309570312e+00 8.205699920654296875e-01 1.084561944007873535e+00 -3.971909880638122559e-01 -4.257909953594207764e-01 -1.673999987542629242e-02 1.210440024733543396e-01 -6.725320219993591309e-01 -2.200410068035125732e-01 9.996300190687179565e-02 -3.367320001125335693e-01 2.926500141620635986e-01 5.798900127410888672e-02 -1.166229963302612305e+00 1.692638039588928223e+00 -1.471799984574317932e-02 -2.555999904870986938e-03 -1.139170005917549133e-01 -4.425299912691116333e-02 1.431099977344274521e-02 -9.672489762306213379e-01 -5.589510202407836914e-01 1.031891942024230957e+00 -1.156255960464477539e+00 1.791406989097595215e+00 -9.476190209388732910e-01 6.223989725112915039e-01 -5.085970163345336914e-01 -6.297399848699569702e-02 2.712999880313873291e-01 1.888920068740844727e-01 -1.172057032585144043e+00 -3.923949897289276123e-01 -1.284579992294311523e+00 -2.591730058193206787e-01 4.658139944076538086e-01 3.119960129261016846e-01 6.946769952774047852e-01 3.637199848890304565e-02 -5.952579975128173828e-01 4.438899829983711243e-02 -4.741000011563301086e-02 6.451169848442077637e-01 -2.644380033016204834e-01 1.090120002627372742e-01 1.952349990606307983e-01 -8.700469732284545898e-01 -2.959159910678863525e-01 3.572899997234344482e-01 4.889199882745742798e-02 2.515139877796173096e-01 -2.831450104713439941e-01 1.761469990015029907e-01 -2.636300027370452881e-02 -1.013924002647399902e+00 -2.621349990367889404e-01 -1.210811018943786621e+00 -5.732799768447875977e-01 5.415449738502502441e-01 -1.780424952507019043e+00 -1.057644009590148926e+00 -4.037240147590637207e-01 1.043470978736877441e+00 -9.577649831771850586e-01 -4.512250125408172607e-01 -8.095440268516540527e-01 6.053860187530517578e-01 1.523849964141845703e-01 1.445640027523040771e-01 -3.447400033473968506e-02 9.179499745368957520e-02 1.071719974279403687e-01 2.470059990882873535e-01 -2.343730032444000244e-01 3.889620006084442139e-01 -2.377009987831115723e-01 9.368599951267242432e-02 -2.247159928083419800e-01 1.126839965581893921e-01 3.913049995899200439e-01 -1.053480982780456543e+00 -4.147720038890838623e-01 8.784200251102447510e-02 -1.086024045944213867e+00 -1.549659967422485352e+00 -7.824620008468627930e-01 -8.461000397801399231e-03 -3.485839962959289551e-01 1.194833993911743164e+00 9.256999939680099487e-02 -1.262959986925125122e-01 -6.191170215606689453e-01 5.202300101518630981e-02 2.659690082073211670e-01 -5.667080283164978027e-01 -2.042980045080184937e-01 1.363296985626220703e+00 -1.948290944099426270e+00 1.356014013290405273e+00 1.554926037788391113e+00 -1.926479935646057129e-01 1.484310030937194824e+00 -2.291440069675445557e-01 -9.142370223999023438e-01 2.211863994598388672e+00 -1.344907999038696289e+00 4.472469985485076904e-01 -7.075669765472412109e-01 5.628380179405212402e-01 8.840469717979431152e-01 -2.422794103622436523e+00 -2.599099874496459961e-01 -1.463384985923767090e+00 -7.734300196170806885e-02 2.608110010623931885e-01 2.954129874706268311e-01 8.461900055408477783e-02 4.919800162315368652e-02 -1.461776018142700195e+00 2.768979966640472412e-01 -2.548259019851684570e+00 3.015019893646240234e-01 -5.158320069313049316e-01 -2.373179942369461060e-01 -5.324800014495849609e-01 6.691979765892028809e-01 2.657859921455383301e-01 -3.085249960422515869e-01 -1.142271995544433594e+00 -3.163599967956542969e-02 2.704609930515289307e-01 -1.813459992408752441e-01 -2.441480010747909546e-01 3.565639853477478027e-01 3.451839983463287354e-01 -9.214379787445068359e-01 -2.167330980300903320e+00 -9.179720282554626465e-01 -8.359199762344360352e-02 -7.927759885787963867e-01 7.391099631786346436e-02 5.219200253486633301e-01 -1.512712001800537109e+00 -1.160549998283386230e+00 3.316060006618499756e-01 2.218780040740966797e+00 -1.398939937353134155e-01 2.236229926347732544e-01 1.959843993186950684e+00 1.206419989466667175e-01 -6.545799970626831055e-02 1.464229971170425415e-01 4.194270074367523193e-01 7.287009954452514648e-01 -3.949970006942749023e-01 -1.151510953903198242e+00 -7.643300294876098633e-02 1.296841979026794434e+00 7.110180258750915527e-01 5.501160025596618652e-01 1.310169994831085205e-01 4.052500054240226746e-02 4.841589927673339844e-01 -2.198299951851367950e-02 2.229199931025505066e-02 1.960093975067138672e+00 -7.373470067977905273e-01 -1.691440045833587646e-01 -8.403819799423217773e-01 -1.763316035270690918e+00 2.180351972579956055e+00 -5.158029794692993164e-01 6.134840250015258789e-01 -1.129959970712661743e-01 1.472660005092620850e-01 -1.138044953346252441e+00 -4.472990036010742188e-01 -1.394249945878982544e-01 2.498680055141448975e-01 -1.025362968444824219e+00 -8.327620029449462891e-01 -1.815530061721801758e-01 2.781319916248321533e-01 -2.387409955263137817e-01 1.003054022789001465e+00 2.957029938697814941e-01 5.583950281143188477e-01 6.085960268974304199e-01 1.013694047927856445e+00 7.914400100708007812e-01 -2.010974884033203125e+00 9.147220253944396973e-01 6.441699862480163574e-01 -9.111899733543395996e-01 -1.031360030174255371e-01 -3.983699977397918701e-01 -6.006899848580360413e-02 4.843640029430389404e-01 1.435739040374755859e+00 4.889580011367797852e-01 -5.388389825820922852e-01 -4.362379908561706543e-01 -8.949559926986694336e-01 -1.202594041824340820e+00 -9.318699687719345093e-02 2.476650029420852661e-01 5.837270021438598633e-01 -4.201880097389221191e-01 4.183099865913391113e-01 2.755810022354125977e-01 -6.792599707841873169e-02 1.864593029022216797e+00 -1.698309928178787231e-01 -1.793660074472427368e-01 9.705999866127967834e-03 -7.203180193901062012e-01 -7.603870034217834473e-01 3.359369933605194092e-01 5.144450068473815918e-01 -7.984399795532226562e-02 -7.440339922904968262e-01 3.465100005269050598e-02 -8.023970127105712891e-01 -4.695599898695945740e-02 4.178909957408905029e-01 -4.801889955997467041e-01 -4.969390034675598145e-01 3.698590099811553955e-01 -2.370869964361190796e-01 -1.421709954738616943e-01 -4.490570127964019775e-01 1.622229963541030884e-01 2.292053937911987305e+00 -1.378684997558593750e+00 -6.792809963226318359e-01 -1.915130019187927246e-01 1.122444987297058105e+00 8.431710004806518555e-01 -9.216400235891342163e-02 8.210710287094116211e-01 -9.826989769935607910e-01 -3.710849881172180176e-01 3.181160092353820801e-01 4.825960099697113037e-01 -4.021089971065521240e-01 -1.414052963256835938e+00 -5.448089838027954102e-01 -3.472189903259277344e-01 -6.377879977226257324e-01 1.471115946769714355e+00 3.928833007812500000e+00 -1.985682010650634766e+00 -7.836899906396865845e-02 -1.534099970012903214e-02 1.698900014162063599e-02 -4.432930052280426025e-01 9.645869731903076172e-01 1.333580017089843750e-01 -7.959110140800476074e-01 2.082860022783279419e-01 -2.415959984064102173e-01 8.585360050201416016e-01 -1.260090023279190063e-01 3.145729899406433105e-01 -2.122370004653930664e-01 -1.093798995018005371e+00 4.352380037307739258e-01 -1.250009983777999878e-01 6.749330163002014160e-01 -3.182500004768371582e-01 4.587689936161041260e-01 -1.381970047950744629e-01 -6.355869770050048828e-01 1.026713967323303223e+00 1.117108941078186035e+00 6.477829813957214355e-01 -1.187679991126060486e-01 -2.573260068893432617e-01 -3.650859892368316650e-01 5.905929803848266602e-01 3.051030039787292480e-01 4.961949884891510010e-01 -4.928379952907562256e-01 2.287320047616958618e-01 8.566000312566757202e-02 -1.573839932680130005e-01 -3.410840034484863281e-01 -6.317059993743896484e-01 5.313959717750549316e-01 -2.381190061569213867e-01 -1.146461009979248047e+00 3.050270080566406250e-01 -2.680990099906921387e-01 -7.542000152170658112e-03 -2.514629960060119629e-01 -1.001551985740661621e+00 -3.069919943809509277e-01 6.483359932899475098e-01 -2.065619975328445435e-01 -8.199539780616760254e-01 -7.535699754953384399e-02 -1.821690052747726440e-01 -5.424860119819641113e-01 1.888300031423568726e-01 -9.333440065383911133e-01 -7.845079898834228516e-01 -5.525360107421875000e-01 7.612220048904418945e-01 3.589540123939514160e-01 3.307969868183135986e-01 5.599099993705749512e-01 6.226590275764465332e-01 -2.731690108776092529e-01 1.773779988288879395e-01 -1.211600005626678467e-02 -9.916599839925765991e-02 -2.356379926204681396e-01 -2.006710022687911987e-01 -1.604241013526916504e+00 -1.595180034637451172e-01 -4.255189895629882812e-01 -1.699599996209144592e-02 8.262299746274948120e-02 -3.991699963808059692e-02 -5.443239808082580566e-01 1.611000043340027332e-03 1.077210009098052979e-01 4.532949924468994141e-01 1.186740025877952576e-01 -9.287379980087280273e-01 -2.144899964332580566e-02 -1.024116039276123047e+00 2.607240080833435059e-01 -8.801259994506835938e-01 -2.695690095424652100e-01 1.882490068674087524e-01 6.874799728393554688e-02 -1.469610035419464111e-01 -1.991070061922073364e-01 -6.367599964141845703e-01 1.669082045555114746e+00 2.956469953060150146e-01 -2.144390046596527100e-01 1.498830020427703857e-01 4.322650134563446045e-01 -8.120710253715515137e-01 -3.643760085105895996e-01 -5.794309973716735840e-01 -2.080329895019531250e+00 -2.592079937458038330e-01 -8.481490015983581543e-01 -1.570409983396530151e-01 -9.627799987792968750e-01 -4.158020019531250000e-01 5.902900174260139465e-02 6.954209804534912109e-01 -1.216310977935791016e+00 7.521780133247375488e-01 5.840029716491699219e-01 -6.065829992294311523e-01 5.888810157775878906e-01 -1.710099913179874420e-02 8.454900234937667847e-02 -3.236249983310699463e-01 1.571120977401733398e+00 -3.272059857845306396e-01 5.985400080680847168e-01 -5.841450095176696777e-01 -2.792780101299285889e-01 -1.396539956331253052e-01 3.159979879856109619e-01 7.177259922027587891e-01 -8.818979859352111816e-01 1.015702009201049805e+00 6.816970109939575195e-01 3.724940121173858643e-01 -2.227452993392944336e+00 2.880960106849670410e-01 -5.304750204086303711e-01 -3.876740038394927979e-01 1.326130032539367676e-01 1.422030031681060791e-01 -1.057349964976310730e-01 -7.276300340890884399e-02 -8.018929958343505859e-01 -6.487400084733963013e-02 9.058809876441955566e-01 9.373930096626281738e-01 -1.007783055305480957e+00 1.125279963016510010e-01 -1.342826008796691895e+00 3.487829864025115967e-01 -2.961539924144744873e-01 2.852360010147094727e-01 -5.491030216217041016e-01 2.038230001926422119e-01 3.287149965763092041e-01 -6.441109776496887207e-01 -4.658629894256591797e-01 -3.441559970378875732e-01 2.956900000572204590e-02 5.283240079879760742e-01 2.836460113525390625e+00 1.298570990562438965e+00 -2.439630031585693359e-01 -9.355189800262451172e-01 3.110159933567047119e-01 -2.275100052356719971e-01 4.969980120658874512e-01 4.130780100822448730e-01 2.273010015487670898e-01 4.453400149941444397e-02 2.050500065088272095e-01 -3.948549926280975342e-01 -3.713110089302062988e-01 -6.473280191421508789e-01 1.739855051040649414e+00 2.366629987955093384e-01 2.320369929075241089e-01 9.161490201950073242e-01 5.677610039710998535e-01 7.830099761486053467e-02 3.099829852581024170e-01 2.491600066423416138e-01 9.245199710130691528e-02 1.614099927246570587e-02 -3.421770036220550537e-01 -1.035573959350585938e+00 1.185119971632957458e-01 -1.735550999641418457e+00 3.408800065517425537e-02 5.903009772300720215e-01 4.249550104141235352e-01 3.813400119543075562e-02 -3.993340134620666504e-01 9.477679729461669922e-01 2.934029996395111084e-01 -2.624120116233825684e-01 -3.198130130767822266e-01 -3.133330106735229492e+00 8.130130171775817871e-01 6.080089807510375977e-01 7.458220124244689941e-01 -4.856339991092681885e-01 6.310300230979919434e-01 6.640520095825195312e-01 1.269270032644271851e-01 -4.305399954319000244e-01 -2.983889877796173096e-01 -2.391179949045181274e-01 -5.652629733085632324e-01 -4.814170002937316895e-01 3.117249906063079834e-01 -8.743770122528076172e-01 6.776620149612426758e-01 -2.246160060167312622e-01 7.451729774475097656e-01 -1.414913058280944824e+00 5.120790004730224609e-01 -2.918800115585327148e-01 1.354081988334655762e+00 4.613089859485626221e-01 4.892849922180175781e-01 2.180480062961578369e-01 1.280565023422241211e+00 -3.518060147762298584e-01 -4.740679860115051270e-01 3.200890123844146729e-01 -2.384939938783645630e-01 5.773379802703857422e-01 5.605080127716064453e-01 -2.559623003005981445e+00 3.755894899368286133e+00 -1.044618964195251465e+00 -4.376899823546409607e-02 7.934699952602386475e-02 -5.194199830293655396e-02 -9.156300127506256104e-02 8.515229821205139160e-01 3.835000097751617432e-01 1.070770978927612305e+00 -9.270370006561279297e-01 9.188200235366821289e-01 1.388769984245300293e+00 -7.388449907302856445e-01 6.109759807586669922e-01 1.126869991421699524e-01 6.261550188064575195e-01 3.051829934120178223e-01 1.886280030012130737e-01 -5.645899772644042969e-01 3.001829981803894043e-01 4.620369970798492432e-01 -2.882699966430664062e-01 -1.175887942314147949e+00 2.780939936637878418e-01 -8.945810198783874512e-01 -5.307260155677795410e-01 -4.057370126247406006e-01 1.155980005860328674e-01 5.419700145721435547e-01 1.043607950210571289e+00 9.938900172710418701e-02 -1.152269989252090454e-01 -5.922330021858215332e-01 -1.964800059795379639e-02 -6.235939860343933105e-01 -1.665360033512115479e-01 -8.767060041427612305e-01 1.612010002136230469e-01 -6.865919828414916992e-01 9.664009809494018555e-01 6.330450177192687988e-01 -6.044409871101379395e-01 -1.895643949508666992e+00 7.276470065116882324e-01 3.479540050029754639e-01 -3.036080002784729004e-01 1.238427996635437012e+00 5.610000225715339184e-04 -1.673039942979812622e-01 7.582039833068847656e-01 5.894349813461303711e-01 6.160150170326232910e-01 -1.054800003767013550e-01 -4.879900068044662476e-02 1.725170016288757324e-01 -4.855139851570129395e-01 1.677300035953521729e-01 -2.018119990825653076e-01 -3.121980130672454834e-01 1.074329987168312073e-01 9.623579978942871094e-01 6.263750195503234863e-01 -4.797590076923370361e-01 1.200721025466918945e+00 1.173836946487426758e+00 -6.192290186882019043e-01 2.955909967422485352e-01 -8.679190278053283691e-01 -1.262536048889160156e+00 1.582459956407546997e-01 2.731651067733764648e+00 2.235669940710067749e-01 -5.569970011711120605e-01 1.601909041404724121e+00 7.383790016174316406e-01 1.189450025558471680e+00 2.164939939975738525e-01 5.556839704513549805e-01 2.258740067481994629e-01 -1.420879006385803223e+00 -1.207378029823303223e+00 -9.599220156669616699e-01 4.840869903564453125e-01 3.337920010089874268e-01 -4.538660049438476562e-01 -1.037290021777153015e-01 -8.767219781875610352e-01 9.640120267868041992e-01 3.104189932346343994e-01 3.347620069980621338e-01 8.029100298881530762e-02 3.685170114040374756e-01 2.090349942445755005e-01 -3.542299941182136536e-02 -5.059120059013366699e-01 -2.072210013866424561e-01 7.255899906158447266e-02 -3.622339963912963867e-01 -1.331976056098937988e+00 -1.410380005836486816e-01 1.287029981613159180e-01 2.635760009288787842e-01 -1.485963940620422363e+00 -5.124379992485046387e-01 -1.918099969625473022e-01 4.932479858398437500e-01 -4.677709937095642090e-01 -1.118369996547698975e-01 3.847059905529022217e-01 5.964199826121330261e-02 -5.007619857788085938e-01 1.921589970588684082e-01 1.410770058631896973e+00 2.204329967498779297e-01 3.957760035991668701e-01 1.441514968872070312e+00 3.227800130844116211e-02 -2.278420031070709229e-01 2.470500022172927856e-01 -1.663885951042175293e+00 2.302010059356689453e-01 7.746729850769042969e-01 2.249889969825744629e-01 3.808810114860534668e-01 3.205809891223907471e-01 6.929299980401992798e-02 2.992030084133148193e-01 -5.348290205001831055e-01 8.279599994421005249e-02 1.506530046463012695e-01 2.457329928874969482e-01 4.845679998397827148e-01 5.303729772567749023e-01 -1.296535015106201172e+00 -9.610869884490966797e-01 3.235520124435424805e-01 -1.095687031745910645e+00 -4.755640029907226562e-01 -1.176568984985351562e+00 -5.431500077247619629e-02 -5.418400093913078308e-02 -2.861630022525787354e-01 -4.547299817204475403e-02 -5.898899957537651062e-02 -8.116400241851806641e-02 -6.085700169205665588e-02 -1.444379985332489014e-01 -4.701890051364898682e-01 4.118489921092987061e-01 -1.222859993577003479e-01 -2.264910042285919189e-01 1.544290035963058472e-01 5.480639934539794922e-01 5.450720191001892090e-01 -1.562448024749755859e+00 -1.691809058189392090e+00 1.687065958976745605e+00 -3.159399926662445068e-01 -5.689079761505126953e-01 3.173469901084899902e-01 -1.855619996786117554e-01 5.494760274887084961e-01 5.164740085601806641e-01 3.254370093345642090e-01 -3.479659855365753174e-01 1.831189990043640137e-01 -6.464300304651260376e-02 -7.366340160369873047e-01 9.228829741477966309e-01 -1.821899972856044769e-02 -9.257630109786987305e-01 4.143669903278350830e-01 -5.582759976387023926e-01 3.164789974689483643e-01 -8.677579760551452637e-01 -1.591590046882629395e-01 -5.147809982299804688e-01 1.848867058753967285e+00 -9.199410080909729004e-01 6.304450035095214844e-01 6.595090031623840332e-01 4.558379948139190674e-01 -4.943209886550903320e-01 8.300520181655883789e-01 -1.413246989250183105e+00