
     Program PWSCF v.5.4.0 starts on 22Sep2019 at 18:53:14 

     This program is part of the open-source Quantum ESPRESSO suite
     for quantum simulation of materials; please cite
         "P. Giannozzi et al., J. Phys.:Condens. Matter 21 395502 (2009);
          URL http://www.quantum-espresso.org", 
     in publications or presentations arising from this work. More details at
     http://www.quantum-espresso.org/quote

           HOST :    @host@
           ARCH :    
             CC :    cc
            CPP :    cpp
            F90 :    mpif90
            F77 :    gfortran
         DFLAGS :    -D__GFORTRAN -D__STD_F95 -D__FFTW3 -D__MPI -D__PARA
      BLAS LIBS :    -lopenblas
    LAPACK LIBS :    -lopenblas
       FFT LIBS :    -lfftw3
      MASS LIBS :    

     Parallel version (MPI), running on    28 processors
     R & G space division:  proc/nbgrp/npool/nimage =      28
     Waiting for input...
     Reading input from standard input
Warning: card &IONS ignored
Warning: card / ignored
Warning: card &CELL ignored
Warning: card / ignored

     Current dimensions of program PWSCF are:
     Max number of different atomic species (ntypx) = 10
     Max number of k-points (npk) =  40000
     Max angular momentum in pseudopotentials (lmaxx) =  3

     IMPORTANT: XC functional enforced from input :
     Exchange-correlation      = PBE ( 1  4  3  4 0 0)
     Any further DFT definition will be discarded
     Please, verify this is what you really want


     gamma-point specific algorithms are used

     Subspace diagonalization in iterative solution of the eigenvalue problem:
     a serial algorithm will be used


     Parallelization info
     --------------------
     sticks:   dense  smooth     PW     G-vecs:    dense   smooth      PW
     Min         445     445    110                37558    37558    4694
     Max         448     448    112                37564    37564    4708
     Sum       12517   12517   3125              1051747  1051747  131683
     Tot        6259    6259   1563



     bravais-lattice index     =            1
     lattice parameter (alat)  =      18.8973  a.u.
     unit-cell volume          =    6748.3346 (a.u.)^3
     number of atoms/cell      =            5
     number of atomic types    =            2
     number of electrons       =         8.00
     number of Kohn-Sham states=            4
     kinetic-energy cutoff     =     110.0000  Ry
     charge density cutoff     =     440.0000  Ry
     convergence threshold     =      1.0E-06
     mixing beta               =       0.5000
     number of iterations used =            8  plain     mixing
     Exchange-correlation      = PBE ( 1  4  3  4 0 0)

     celldm(1)=  18.897261  celldm(2)=   0.000000  celldm(3)=   0.000000
     celldm(4)=   0.000000  celldm(5)=   0.000000  celldm(6)=   0.000000

     crystal axes: (cart. coord. in units of alat)
               a(1) = (   1.000000   0.000000   0.000000 )  
               a(2) = (   0.000000   1.000000   0.000000 )  
               a(3) = (   0.000000   0.000000   1.000000 )  

     reciprocal axes: (cart. coord. in units 2 pi/alat)
               b(1) = (  1.000000  0.000000  0.000000 )  
               b(2) = (  0.000000  1.000000  0.000000 )  
               b(3) = (  0.000000  0.000000  1.000000 )  


     PseudoPot. # 1 for  H read from file:
     ../pseudo/H.tm.pbe.UPF
     MD5 check sum: 4b614d66af87240b7a5107bfa527a767
     Pseudo is Norm-conserving, Zval =  1.0
     Generated using "atomic" code by A. Dal Corso  v.5.2.0
     Using radial grid of  929 points,  0 beta functions with: 

     PseudoPot. # 2 for  C read from file:
     ../pseudo/C.tm.pbe.UPF
     MD5 check sum: a4f27fcb9b24331b00ace8e732a7e062
     Pseudo is Norm-conserving, Zval =  4.0
     Generated using "atomic" code by A. Dal Corso  v.5.2.0
     Using radial grid of 1073 points,  1 beta functions with: 
                l(1) =   1

     atomic species   valence    mass     pseudopotential
        H              1.00     1.00000      H( 1.00)
        C              4.00     1.00000      C( 1.00)

     No symmetry found



   Cartesian axes

     site n.     atom                  positions (alat units)
         1           H   tau(   1) = (   0.5436650   0.4077150   0.3593370  )
         2           H   tau(   2) = (   0.3949690   0.4853970   0.4418180  )
         3           H   tau(   3) = (   0.5629960   0.5682210   0.4426840  )
         4           H   tau(   4) = (   0.5340080   0.4171300   0.5355780  )
         5           C   tau(   5) = (   0.5074500   0.4716510   0.4430880  )

     number of k points=     1
                       cart. coord. in units 2pi/alat
        k(    1) = (   0.0000000   0.0000000   0.0000000), wk =   2.0000000

     Dense  grid:   525874 G-vectors     FFT dimensions: ( 128, 128, 128)

     Largest allocated arrays     est. size (Mb)     dimensions
        Kohn-Sham Wavefunctions         0.14 Mb     (    2354,    4)
        NL pseudopotentials             0.11 Mb     (    2354,    3)
        Each V/rho on FFT grid          1.25 Mb     (   81920)
        Each G-vector array             0.14 Mb     (   18782)
        G-vector shells                 0.02 Mb     (    2785)
     Largest temporary arrays     est. size (Mb)     dimensions
        Auxiliary wavefunctions         0.29 Mb     (    2354,   16)
        Each subspace H/S matrix        0.00 Mb     (      16,   16)
        Each <psi_i|beta_j> matrix      0.00 Mb     (       3,    4)
        Arrays for rho mixing          10.00 Mb     (   81920,    8)

     Initial potential from superposition of free atoms
     Check: negative starting charge=   -0.000376

     starting charge    7.99992, renormalised to    8.00000

     negative rho (up, down):  3.756E-04 0.000E+00
     Starting wfc are    8 randomized atomic wfcs

     total cpu time spent up to now is        2.9 secs

     per-process dynamical memory:   430.8 Mb

     Self-consistent Calculation

     iteration #  1     ecut=   110.00 Ry     beta=0.50
     Davidson diagonalization with overlap
     ethr =  1.00E-02,  avg # of iterations =  2.0

     negative rho (up, down):  1.778E-04 0.000E+00

     total cpu time spent up to now is        3.3 secs

     total energy              =     -16.02424742 Ry
     Harris-Foulkes estimate   =     -16.38769963 Ry
     estimated scf accuracy    <       0.64701000 Ry

     iteration #  2     ecut=   110.00 Ry     beta=0.50
     Davidson diagonalization with overlap
     ethr =  8.09E-03,  avg # of iterations =  2.0

     negative rho (up, down):  9.424E-05 0.000E+00

     total cpu time spent up to now is        3.8 secs

     total energy              =     -16.15009804 Ry
     Harris-Foulkes estimate   =     -16.17014333 Ry
     estimated scf accuracy    <       0.05154300 Ry

     iteration #  3     ecut=   110.00 Ry     beta=0.50
     Davidson diagonalization with overlap
     ethr =  6.44E-04,  avg # of iterations =  1.0

     negative rho (up, down):  5.834E-06 0.000E+00

     total cpu time spent up to now is        4.1 secs

     total energy              =     -16.14877677 Ry
     Harris-Foulkes estimate   =     -16.15426943 Ry
     estimated scf accuracy    <       0.01156538 Ry

     iteration #  4     ecut=   110.00 Ry     beta=0.50
     Davidson diagonalization with overlap
     ethr =  1.45E-04,  avg # of iterations =  3.0

     negative rho (up, down):  4.801E-06 0.000E+00

     total cpu time spent up to now is        4.7 secs

     total energy              =     -16.15063962 Ry
     Harris-Foulkes estimate   =     -16.15344762 Ry
     estimated scf accuracy    <       0.00647730 Ry

     iteration #  5     ecut=   110.00 Ry     beta=0.50
     Davidson diagonalization with overlap
     ethr =  8.10E-05,  avg # of iterations =  2.0

     negative rho (up, down):  4.494E-07 0.000E+00

     total cpu time spent up to now is        5.2 secs

     total energy              =     -16.15135169 Ry
     Harris-Foulkes estimate   =     -16.15138242 Ry
     estimated scf accuracy    <       0.00009819 Ry

     iteration #  6     ecut=   110.00 Ry     beta=0.50
     Davidson diagonalization with overlap
     ethr =  1.23E-06,  avg # of iterations =  2.0

     negative rho (up, down):  9.064E-08 0.000E+00

     total cpu time spent up to now is        5.8 secs

     total energy              =     -16.15136994 Ry
     Harris-Foulkes estimate   =     -16.15137259 Ry
     estimated scf accuracy    <       0.00001743 Ry

     iteration #  7     ecut=   110.00 Ry     beta=0.50
     Davidson diagonalization with overlap
     ethr =  2.18E-07,  avg # of iterations =  2.0

     total cpu time spent up to now is        6.5 secs

     total energy              =     -16.15137167 Ry
     Harris-Foulkes estimate   =     -16.15137282 Ry
     estimated scf accuracy    <       0.00000389 Ry

     iteration #  8     ecut=   110.00 Ry     beta=0.50
     Davidson diagonalization with overlap
     ethr =  4.87E-08,  avg # of iterations =  1.0

     total cpu time spent up to now is        6.8 secs

     total energy              =     -16.15137134 Ry
     Harris-Foulkes estimate   =     -16.15137184 Ry
     estimated scf accuracy    <       0.00000114 Ry

     iteration #  9     ecut=   110.00 Ry     beta=0.50
     Davidson diagonalization with overlap
     ethr =  1.43E-08,  avg # of iterations =  2.0

     total cpu time spent up to now is        7.3 secs

     End of self-consistent calculation

          k = 0.0000 0.0000 0.0000 ( 65842 PWs)   bands (ev):

   -16.6849  -9.3028  -9.2089  -9.0004

     highest occupied level (ev):    -9.0004

!    total energy              =     -16.15137160 Ry
     Harris-Foulkes estimate   =     -16.15137160 Ry
     estimated scf accuracy    <          3.4E-09 Ry

     The total energy is the sum of the following terms:

     one-electron contribution =     -39.62294602 Ry
     hartree contribution      =      20.63116701 Ry
     xc contribution           =      -6.28727199 Ry
     ewald contribution        =       9.12767940 Ry

     convergence has been achieved in   9 iterations

     Forces acting on atoms (Ry/au):

     atom    1 type  1   force =    -0.01547771    0.01676595    0.00852989
     atom    2 type  1   force =     0.04519828   -0.00107275   -0.00719780
     atom    3 type  1   force =    -0.01830398   -0.01579342   -0.00245821
     atom    4 type  1   force =    -0.00396521    0.00784381   -0.00387649
     atom    5 type  2   force =    -0.00745139   -0.00774360    0.00500261

     Total force =     0.059267     Total SCF correction =     0.000024


     entering subroutine stress ...

          total   stress  (Ry/bohr**3)                   (kbar)     P=   -1.76
  -0.00002075   0.00000017   0.00000246         -3.05      0.02      0.36
   0.00000017  -0.00001030  -0.00000188          0.02     -1.52     -0.28
   0.00000246  -0.00000188  -0.00000477          0.36     -0.28     -0.70


     init_run     :      2.50s CPU      2.54s WALL (       1 calls)
     electrons    :      4.30s CPU      4.35s WALL (       1 calls)
     forces       :      0.91s CPU      0.91s WALL (       1 calls)
     stress       :      1.11s CPU      1.12s WALL (       1 calls)

     Called by init_run:
     wfcinit      :      0.19s CPU      0.20s WALL (       1 calls)
     potinit      :      0.96s CPU      0.97s WALL (       1 calls)

     Called by electrons:
     c_bands      :      1.79s CPU      1.81s WALL (       9 calls)
     sum_band     :      0.48s CPU      0.49s WALL (       9 calls)
     v_of_rho     :      1.94s CPU      1.97s WALL (      10 calls)
     mix_rho      :      0.26s CPU      0.26s WALL (       9 calls)

     Called by c_bands:
     init_us_2    :      0.04s CPU      0.05s WALL (      19 calls)
     regterg      :      1.76s CPU      1.77s WALL (       9 calls)

     Called by sum_band:

     Called by *egterg:
     h_psi        :      1.89s CPU      1.90s WALL (      27 calls)
     g_psi        :      0.01s CPU      0.01s WALL (      17 calls)
     rdiaghg      :      0.00s CPU      0.00s WALL (      26 calls)

     Called by h_psi:
     add_vuspsi   :      0.00s CPU      0.00s WALL (      27 calls)

     General routines
     calbec       :      0.57s CPU      0.57s WALL (      32 calls)
     fft          :      1.87s CPU      1.92s WALL (     117 calls)
     fftw         :      1.34s CPU      1.36s WALL (     128 calls)

     Parallel routines
     fft_scatter  :      1.36s CPU      1.40s WALL (     245 calls)

     PWSCF        :     9.18s CPU         9.30s WALL


   This run was terminated on:  18:53:24  22Sep2019            

=------------------------------------------------------------------------------=
   JOB DONE.
=------------------------------------------------------------------------------=
