-5.757529999999999593e-01 2.479910999999999976e+00 -3.133999999999999980e-02 -9.438400000000000123e-01 -2.317035000000000178e+00 1.626100000000000115e-02 -8.107069999999999554e-01 -2.391947000000000045e+00 3.954900000000000082e-02 1.225972999999999979e+00 -9.481799999999999951e-02 -9.268000000000000196e-03 5.575639999999999485e-01 1.162601999999999913e+00 -1.697475999999999985e+00 5.467640000000000278e-01 1.161286000000000040e+00 1.682274000000000047e+00
