-1.874838256835937500e+03
-1.872965698242187500e+03
-1.874796142578125000e+03
-1.877773559570312500e+03
-1.873364013671875000e+03
-1.883730590820312500e+03
-1.874250122070312500e+03
-1.880147827148437500e+03
-1.879165405273437500e+03
-1.880210083007812500e+03
-1.880530639648437500e+03
-1.876485473632812500e+03
-1.875943725585937500e+03
-1.872076538085937500e+03
-1.876835449218750000e+03
-1.877832275390625000e+03
-1.878846435546875000e+03
-1.873984008789062500e+03
-1.882004882812500000e+03
-1.879151855468750000e+03
-1.873157958984375000e+03
-1.883002929687500000e+03
-1.878582519531250000e+03
-1.877250976562500000e+03
-1.879977050781250000e+03
-1.885692382812500000e+03
-1.876548828125000000e+03
-1.877639282226562500e+03
-1.876933471679687500e+03
-1.869654418945312500e+03
-1.875904907226562500e+03
-1.872901611328125000e+03
-1.876402221679687500e+03
-1.878950439453125000e+03
-1.877595336914062500e+03
-1.878631225585937500e+03
-1.877696044921875000e+03
-1.876670654296875000e+03
-1.881564453125000000e+03
-1.874770019531250000e+03
-1.871637695312500000e+03
-1.873995727539062500e+03
-1.879741821289062500e+03
-1.877590209960937500e+03
-1.876758789062500000e+03
