
     Program PWSCF v.5.4.0 starts on 22Sep2019 at 18:48: 2 

     This program is part of the open-source Quantum ESPRESSO suite
     for quantum simulation of materials; please cite
         "P. Giannozzi et al., J. Phys.:Condens. Matter 21 395502 (2009);
          URL http://www.quantum-espresso.org", 
     in publications or presentations arising from this work. More details at
     http://www.quantum-espresso.org/quote

           HOST :    @host@
           ARCH :    
             CC :    cc
            CPP :    cpp
            F90 :    mpif90
            F77 :    gfortran
         DFLAGS :    -D__GFORTRAN -D__STD_F95 -D__FFTW3 -D__MPI -D__PARA
      BLAS LIBS :    -lopenblas
    LAPACK LIBS :    -lopenblas
       FFT LIBS :    -lfftw3
      MASS LIBS :    

     Parallel version (MPI), running on    28 processors
     R & G space division:  proc/nbgrp/npool/nimage =      28
     Waiting for input...
     Reading input from standard input
Warning: card &IONS ignored
Warning: card / ignored
Warning: card &CELL ignored
Warning: card / ignored

     Current dimensions of program PWSCF are:
     Max number of different atomic species (ntypx) = 10
     Max number of k-points (npk) =  40000
     Max angular momentum in pseudopotentials (lmaxx) =  3

     IMPORTANT: XC functional enforced from input :
     Exchange-correlation      = PBE ( 1  4  3  4 0 0)
     Any further DFT definition will be discarded
     Please, verify this is what you really want


     gamma-point specific algorithms are used

     Subspace diagonalization in iterative solution of the eigenvalue problem:
     a serial algorithm will be used


     Parallelization info
     --------------------
     sticks:   dense  smooth     PW     G-vecs:    dense   smooth      PW
     Min         445     445    110                37558    37558    4694
     Max         448     448    112                37564    37564    4708
     Sum       12517   12517   3125              1051747  1051747  131683
     Tot        6259    6259   1563



     bravais-lattice index     =            1
     lattice parameter (alat)  =      18.8973  a.u.
     unit-cell volume          =    6748.3346 (a.u.)^3
     number of atoms/cell      =            5
     number of atomic types    =            2
     number of electrons       =         8.00
     number of Kohn-Sham states=            4
     kinetic-energy cutoff     =     110.0000  Ry
     charge density cutoff     =     440.0000  Ry
     convergence threshold     =      1.0E-06
     mixing beta               =       0.5000
     number of iterations used =            8  plain     mixing
     Exchange-correlation      = PBE ( 1  4  3  4 0 0)

     celldm(1)=  18.897261  celldm(2)=   0.000000  celldm(3)=   0.000000
     celldm(4)=   0.000000  celldm(5)=   0.000000  celldm(6)=   0.000000

     crystal axes: (cart. coord. in units of alat)
               a(1) = (   1.000000   0.000000   0.000000 )  
               a(2) = (   0.000000   1.000000   0.000000 )  
               a(3) = (   0.000000   0.000000   1.000000 )  

     reciprocal axes: (cart. coord. in units 2 pi/alat)
               b(1) = (  1.000000  0.000000  0.000000 )  
               b(2) = (  0.000000  1.000000  0.000000 )  
               b(3) = (  0.000000  0.000000  1.000000 )  


     PseudoPot. # 1 for  H read from file:
     ../pseudo/H.tm.pbe.UPF
     MD5 check sum: 4b614d66af87240b7a5107bfa527a767
     Pseudo is Norm-conserving, Zval =  1.0
     Generated using "atomic" code by A. Dal Corso  v.5.2.0
     Using radial grid of  929 points,  0 beta functions with: 

     PseudoPot. # 2 for  C read from file:
     ../pseudo/C.tm.pbe.UPF
     MD5 check sum: a4f27fcb9b24331b00ace8e732a7e062
     Pseudo is Norm-conserving, Zval =  4.0
     Generated using "atomic" code by A. Dal Corso  v.5.2.0
     Using radial grid of 1073 points,  1 beta functions with: 
                l(1) =   1

     atomic species   valence    mass     pseudopotential
        H              1.00     1.00000      H( 1.00)
        C              4.00     1.00000      C( 1.00)

     No symmetry found



   Cartesian axes

     site n.     atom                  positions (alat units)
         1           H   tau(   1) = (   0.5330540   0.4096730   0.3573920  )
         2           H   tau(   2) = (   0.3929670   0.4876950   0.4397190  )
         3           H   tau(   3) = (   0.5512510   0.5677820   0.4421040  )
         4           H   tau(   4) = (   0.5271870   0.4178300   0.5380000  )
         5           C   tau(   5) = (   0.5027550   0.4675840   0.4445060  )

     number of k points=     1
                       cart. coord. in units 2pi/alat
        k(    1) = (   0.0000000   0.0000000   0.0000000), wk =   2.0000000

     Dense  grid:   525874 G-vectors     FFT dimensions: ( 128, 128, 128)

     Largest allocated arrays     est. size (Mb)     dimensions
        Kohn-Sham Wavefunctions         0.14 Mb     (    2354,    4)
        NL pseudopotentials             0.11 Mb     (    2354,    3)
        Each V/rho on FFT grid          1.25 Mb     (   81920)
        Each G-vector array             0.14 Mb     (   18782)
        G-vector shells                 0.02 Mb     (    2785)
     Largest temporary arrays     est. size (Mb)     dimensions
        Auxiliary wavefunctions         0.29 Mb     (    2354,   16)
        Each subspace H/S matrix        0.00 Mb     (      16,   16)
        Each <psi_i|beta_j> matrix      0.00 Mb     (       3,    4)
        Arrays for rho mixing          10.00 Mb     (   81920,    8)

     Initial potential from superposition of free atoms
     Check: negative starting charge=   -0.000386

     starting charge    7.99992, renormalised to    8.00000

     negative rho (up, down):  3.858E-04 0.000E+00
     Starting wfc are    8 randomized atomic wfcs

     total cpu time spent up to now is        2.8 secs

     per-process dynamical memory:   430.8 Mb

     Self-consistent Calculation

     iteration #  1     ecut=   110.00 Ry     beta=0.50
     Davidson diagonalization with overlap
     ethr =  1.00E-02,  avg # of iterations =  2.0

     negative rho (up, down):  1.824E-04 0.000E+00

     total cpu time spent up to now is        3.2 secs

     total energy              =     -16.02172744 Ry
     Harris-Foulkes estimate   =     -16.40470514 Ry
     estimated scf accuracy    <       0.68085116 Ry

     iteration #  2     ecut=   110.00 Ry     beta=0.50
     Davidson diagonalization with overlap
     ethr =  8.51E-03,  avg # of iterations =  2.0

     negative rho (up, down):  9.583E-05 0.000E+00

     total cpu time spent up to now is        3.7 secs

     total energy              =     -16.15287084 Ry
     Harris-Foulkes estimate   =     -16.17228780 Ry
     estimated scf accuracy    <       0.05039662 Ry

     iteration #  3     ecut=   110.00 Ry     beta=0.50
     Davidson diagonalization with overlap
     ethr =  6.30E-04,  avg # of iterations =  1.0

     negative rho (up, down):  5.317E-06 0.000E+00

     total cpu time spent up to now is        4.2 secs

     total energy              =     -16.15122521 Ry
     Harris-Foulkes estimate   =     -16.15670196 Ry
     estimated scf accuracy    <       0.01150949 Ry

     iteration #  4     ecut=   110.00 Ry     beta=0.50
     Davidson diagonalization with overlap
     ethr =  1.44E-04,  avg # of iterations =  3.0

     negative rho (up, down):  4.469E-06 0.000E+00

     total cpu time spent up to now is        4.7 secs

     total energy              =     -16.15318512 Ry
     Harris-Foulkes estimate   =     -16.15550514 Ry
     estimated scf accuracy    <       0.00548576 Ry

     iteration #  5     ecut=   110.00 Ry     beta=0.50
     Davidson diagonalization with overlap
     ethr =  6.86E-05,  avg # of iterations =  2.0

     negative rho (up, down):  2.664E-06 0.000E+00

     total cpu time spent up to now is        5.1 secs

     total energy              =     -16.15354204 Ry
     Harris-Foulkes estimate   =     -16.15366866 Ry
     estimated scf accuracy    <       0.00033829 Ry

     iteration #  6     ecut=   110.00 Ry     beta=0.50
     Davidson diagonalization with overlap
     ethr =  4.23E-06,  avg # of iterations =  3.0

     negative rho (up, down):  2.817E-07 0.000E+00

     total cpu time spent up to now is        5.5 secs

     total energy              =     -16.15366562 Ry
     Harris-Foulkes estimate   =     -16.15366442 Ry
     estimated scf accuracy    <       0.00000798 Ry

     iteration #  7     ecut=   110.00 Ry     beta=0.50
     Davidson diagonalization with overlap
     ethr =  9.97E-08,  avg # of iterations =  3.0

     total cpu time spent up to now is        6.0 secs

     total energy              =     -16.15366461 Ry
     Harris-Foulkes estimate   =     -16.15366956 Ry
     estimated scf accuracy    <       0.00001110 Ry

     iteration #  8     ecut=   110.00 Ry     beta=0.50
     Davidson diagonalization with overlap
     ethr =  9.97E-08,  avg # of iterations =  2.0

     total cpu time spent up to now is        6.5 secs

     End of self-consistent calculation

          k = 0.0000 0.0000 0.0000 ( 65842 PWs)   bands (ev):

   -16.7862  -9.4190  -9.2736  -8.9913

     highest occupied level (ev):    -8.9913

!    total energy              =     -16.15366531 Ry
     Harris-Foulkes estimate   =     -16.15366572 Ry
     estimated scf accuracy    <       0.00000073 Ry

     The total energy is the sum of the following terms:

     one-electron contribution =     -40.06407634 Ry
     hartree contribution      =      20.85539424 Ry
     xc contribution           =      -6.32750277 Ry
     ewald contribution        =       9.38251956 Ry

     convergence has been achieved in   8 iterations

     Forces acting on atoms (Ry/au):

     atom    1 type  1   force =     0.00372649   -0.00629212   -0.00313234
     atom    2 type  1   force =     0.02060892   -0.01148832    0.00178044
     atom    3 type  1   force =    -0.00125955   -0.01958127   -0.00008359
     atom    4 type  1   force =     0.00300616   -0.00809739    0.00632914
     atom    5 type  2   force =    -0.02608201    0.04545909   -0.00489366

     Total force =     0.062399     Total SCF correction =     0.000702


     entering subroutine stress ...

          total   stress  (Ry/bohr**3)                   (kbar)     P=   -0.66
  -0.00000795  -0.00000023  -0.00000039         -1.17     -0.03     -0.06
  -0.00000023  -0.00000594  -0.00000030         -0.03     -0.87     -0.04
  -0.00000039  -0.00000030   0.00000045         -0.06     -0.04      0.07


     init_run     :      2.40s CPU      2.42s WALL (       1 calls)
     electrons    :      3.62s CPU      3.69s WALL (       1 calls)
     forces       :      1.04s CPU      1.04s WALL (       1 calls)
     stress       :      1.11s CPU      1.11s WALL (       1 calls)

     Called by init_run:
     wfcinit      :      0.10s CPU      0.10s WALL (       1 calls)
     potinit      :      0.94s CPU      0.95s WALL (       1 calls)

     Called by electrons:
     c_bands      :      1.44s CPU      1.46s WALL (       8 calls)
     sum_band     :      0.42s CPU      0.44s WALL (       8 calls)
     v_of_rho     :      1.73s CPU      1.76s WALL (       9 calls)
     mix_rho      :      0.21s CPU      0.21s WALL (       8 calls)

     Called by c_bands:
     init_us_2    :      0.04s CPU      0.04s WALL (      17 calls)
     regterg      :      1.41s CPU      1.43s WALL (       8 calls)

     Called by sum_band:

     Called by *egterg:
     h_psi        :      1.45s CPU      1.47s WALL (      27 calls)
     g_psi        :      0.01s CPU      0.01s WALL (      18 calls)
     rdiaghg      :      0.00s CPU      0.00s WALL (      26 calls)

     Called by h_psi:
     add_vuspsi   :      0.00s CPU      0.00s WALL (      27 calls)

     General routines
     calbec       :      0.29s CPU      0.29s WALL (      32 calls)
     fft          :      1.64s CPU      1.68s WALL (     106 calls)
     fftw         :      1.18s CPU      1.21s WALL (     120 calls)

     Parallel routines
     fft_scatter  :      1.12s CPU      1.16s WALL (     226 calls)

     PWSCF        :     8.53s CPU         8.66s WALL


   This run was terminated on:  18:48:11  22Sep2019            

=------------------------------------------------------------------------------=
   JOB DONE.
=------------------------------------------------------------------------------=
