-7.124949999999999894e-01 2.466655999999999960e+00 -3.083800000000000083e-02 -1.056386999999999965e+00 -2.328075999999999812e+00 1.515700000000000033e-02 -8.120600000000000041e-01 -2.366912999999999823e+00 3.898599999999999982e-02 1.498825000000000074e+00 -9.938800000000000412e-02 -8.196999999999999426e-03 5.469960000000000377e-01 1.164409999999999945e+00 -1.726903000000000077e+00 5.351200000000000401e-01 1.163310999999999984e+00 1.711796000000000095e+00
