 running on   32 total cores
 distrk:  each k-point on   32 cores,    1 groups
 distr:  one band on   16 cores,    2 groups
 using from now: INCAR     
 vasp.5.4.4.18Apr17-6-g9f103f2a35 (build Nov 25 2019 16:34:31) complex          
  
 POSCAR found type information on POSCAR  O  H 
 POSCAR found :  2 types and       6 ions
 scaLAPACK will be used

 ----------------------------------------------------------------------------- 
|                                                                             |
|           W    W    AA    RRRRR   N    N  II  N    N   GGGG   !!!           |
|           W    W   A  A   R    R  NN   N  II  NN   N  G    G  !!!           |
|           W    W  A    A  R    R  N N  N  II  N N  N  G       !!!           |
|           W WW W  AAAAAA  RRRRR   N  N N  II  N  N N  G  GGG   !            |
|           WW  WW  A    A  R   R   N   NN  II  N   NN  G    G                |
|           W    W  A    A  R    R  N    N  II  N    N   GGGG   !!!           |
|                                                                             |
|      For optimal performance we recommend to set                            |
|        NCORE= 4 - approx SQRT( number of cores)                             |
|      NCORE specifies how many cores store one orbital (NPAR=cpu/NCORE).     |
|      This setting can  greatly improve the performance of VASP for DFT.     |
|      The default,   NCORE=1            might be grossly inefficient         |
|      on modern multi-core architectures or massively parallel machines.     |
|      Do your own testing !!!!                                               |
|      Unfortunately you need to use the default for GW and RPA calculations. |
|      (for HF NCORE is supported but not extensively tested yet)             |
|                                                                             |
 ----------------------------------------------------------------------------- 

 LDA part: xc-table for Pade appr. of Perdew
 generate k-points for:    1    2    2
 POSCAR, INCAR and KPOINTS ok, starting setup
 FFT: planning ...
 WAVECAR not read
 WARNING: random wavefunctions but no delay for mixing, default for NELMDL
 entering main loop
       N       E                     dE             d eps       ncg     rms          rms(c)
DAV:   1     0.152175195931E+03    0.15218E+03   -0.47393E+03    64   0.142E+03
DAV:   2     0.495642779356E+02   -0.10261E+03   -0.10169E+03    88   0.144E+02
DAV:   3    -0.233662627060E+02   -0.72931E+02   -0.72420E+02    84   0.142E+02
DAV:   4    -0.317906510121E+02   -0.84244E+01   -0.84118E+01    60   0.599E+01
DAV:   5    -0.320107174848E+02   -0.22007E+00   -0.21995E+00    72   0.128E+01    0.180E+01
RMM:   6    -0.287583679774E+02    0.32523E+01   -0.12928E+01    64   0.253E+01    0.177E+01
RMM:   7    -0.287182727459E+02    0.40095E-01   -0.12265E+00    76   0.548E+00    0.156E+01
RMM:   8    -0.296518481363E+02   -0.93358E+00   -0.75176E+00    64   0.227E+01    0.122E+01
RMM:   9    -0.284966384184E+02    0.11552E+01   -0.27605E+00    64   0.121E+01    0.425E+00
RMM:  10    -0.285052448828E+02   -0.86065E-02   -0.21896E-01    76   0.270E+00    0.207E+00
RMM:  11    -0.285013938581E+02    0.38510E-02   -0.87395E-03    66   0.585E-01    0.158E+00
RMM:  12    -0.284894436277E+02    0.11950E-01   -0.77785E-02    60   0.163E+00    0.515E-01
RMM:  13    -0.284914304937E+02   -0.19869E-02   -0.12085E-02    76   0.547E-01    0.518E-01
RMM:  14    -0.284944555953E+02   -0.30251E-02   -0.21993E-03    70   0.272E-01    0.665E-01
RMM:  15    -0.284976601374E+02   -0.32045E-02   -0.34490E-03    60   0.420E-01    0.167E-01
RMM:  16    -0.284979804072E+02   -0.32027E-03   -0.14847E-03    68   0.258E-01    0.716E-02
RMM:  17    -0.284999880852E+02   -0.20077E-02   -0.35501E-03    60   0.398E-01    0.310E-01
RMM:  18    -0.285006976305E+02   -0.70955E-03   -0.11574E-03    76   0.180E-01    0.263E-01
RMM:  19    -0.285004239827E+02    0.27365E-03   -0.50044E-03    63   0.470E-01    0.820E-02
RMM:  20    -0.285001727623E+02    0.25122E-03   -0.56071E-04    66   0.105E-01    0.157E-01
RMM:  21    -0.284996367492E+02    0.53601E-03   -0.18535E-04    66   0.751E-02    0.334E-02
RMM:  22    -0.284994638044E+02    0.17294E-03   -0.10394E-04    64   0.613E-02    0.587E-02
RMM:  23    -0.284999531212E+02   -0.48932E-03   -0.45170E-04    61   0.129E-01    0.153E-01
RMM:  24    -0.284994301702E+02    0.52295E-03   -0.12464E-03    52   0.245E-01    0.489E-02
RMM:  25    -0.284999537125E+02   -0.52354E-03   -0.26922E-04    75   0.870E-02    0.104E-01
RMM:  26    -0.285007421926E+02   -0.78848E-03   -0.29828E-04    48   0.120E-01    0.794E-02
RMM:  27    -0.285008702547E+02   -0.12806E-03   -0.22186E-05    71   0.245E-02    0.540E-02
RMM:  28    -0.285016305844E+02   -0.76033E-03   -0.24078E-05    48   0.299E-02    0.205E-02
RMM:  29    -0.285018784183E+02   -0.24783E-03   -0.16442E-05    64   0.196E-02    0.174E-02
RMM:  30    -0.285020651222E+02   -0.18670E-03   -0.25797E-05    58   0.322E-02    0.136E-02
RMM:  31    -0.285021504331E+02   -0.85311E-04   -0.70042E-06    68   0.128E-02    0.131E-02
RMM:  32    -0.285021934558E+02   -0.43023E-04   -0.31089E-06    54   0.111E-02    0.717E-03
RMM:  33    -0.285022107442E+02   -0.17288E-04   -0.55264E-07    64   0.346E-03    0.560E-03
RMM:  34    -0.285022220848E+02   -0.11341E-04   -0.15396E-06    62   0.762E-03    0.708E-04
RMM:  35    -0.285022284072E+02   -0.63224E-05   -0.11282E-06    68   0.596E-03    0.427E-03
RMM:  36    -0.285022296679E+02   -0.12607E-05   -0.41865E-08    55   0.142E-03    0.325E-03
RMM:  37    -0.285022311648E+02   -0.14969E-05   -0.23009E-07    62   0.300E-03    0.685E-04
RMM:  38    -0.285022314908E+02   -0.32604E-06   -0.42358E-08    54   0.107E-03    0.319E-04
RMM:  39    -0.285022318098E+02   -0.31902E-06   -0.35799E-08    48   0.121E-03    0.458E-04
RMM:  40    -0.285022319897E+02   -0.17993E-06   -0.30377E-08    46   0.978E-04    0.721E-04
RMM:  41    -0.285022320483E+02   -0.58542E-07   -0.66867E-09    44   0.554E-04    0.741E-04
RMM:  42    -0.285022321047E+02   -0.56365E-07   -0.13929E-08    38   0.930E-04    0.157E-04
RMM:  43    -0.285022321791E+02   -0.74422E-07   -0.18908E-08    46   0.904E-04    0.281E-04
RMM:  44    -0.285022322627E+02   -0.83585E-07   -0.56109E-09    40   0.495E-04    0.205E-04
RMM:  45    -0.285022323408E+02   -0.78154E-07   -0.43747E-09    40   0.372E-04    0.319E-04
RMM:  46    -0.285022326126E+02   -0.27176E-06   -0.64627E-09    44   0.488E-04    0.579E-04
RMM:  47    -0.285022327658E+02   -0.15319E-06   -0.35291E-09    42   0.353E-04    0.409E-04
RMM:  48    -0.285022328793E+02   -0.11351E-06   -0.40408E-09    42   0.461E-04    0.240E-04
RMM:  49    -0.285022329365E+02   -0.57235E-07   -0.26558E-09    48   0.351E-04    0.119E-04
RMM:  50    -0.285022329785E+02   -0.41953E-07   -0.79133E-10    36   0.184E-04    0.150E-04
RMM:  51    -0.285022329940E+02   -0.15572E-07   -0.92145E-10    42   0.213E-04    0.814E-05
RMM:  52    -0.285022330036E+02   -0.95515E-08   -0.15134E-09    43   0.284E-04
   1 F= -.28502233E+02 E0= -.28502233E+02  d E =-.517783E-18
