   6   6   0   0
  0.5000000E+03  0.3000000E-08  0.1000000E-08  0.1000000E-08  0.5000000E-15
  1.000000000000000E-004
  CAR 
 unknown system                          
      1.78768845    -26.30934036  301     -6.44825312      1.00000000
    -26.309  0.0000E+00  0.0000E+00
    -26.216  0.0000E+00  0.0000E+00
    -26.122  0.0000E+00  0.0000E+00
    -26.028  0.0000E+00  0.0000E+00
    -25.935  0.0000E+00  0.0000E+00
    -25.841  0.0000E+00  0.0000E+00
    -25.747  0.0000E+00  0.0000E+00
    -25.654  0.0000E+00  0.0000E+00
    -25.560  0.0000E+00  0.0000E+00
    -25.466  0.0000E+00  0.0000E+00
    -25.373  0.0000E+00  0.0000E+00
    -25.279  0.3068E-10  0.2874E-11
    -25.185  0.1558E-03  0.1459E-04
    -25.092  0.9805E+00  0.9185E-01
    -24.998  0.1679E+02  0.1665E+01
    -24.904  0.3578E+01  0.2000E+01
    -24.811  0.3241E-02  0.2000E+01
    -24.717  0.4076E-08  0.2000E+01
    -24.624  0.1436E-08  0.2000E+01
    -24.530  0.1722E-02  0.2000E+01
    -24.436  0.2785E+01  0.2261E+01
    -24.343  0.1721E+02  0.3873E+01
    -24.249  0.1358E+01  0.4000E+01
    -24.155  0.3195E-03  0.4000E+01
    -24.062  0.9518E-10  0.4000E+01
    -23.968  0.0000E+00  0.4000E+01
    -23.874  0.0000E+00  0.4000E+01
    -23.781  0.0000E+00  0.4000E+01
    -23.687  0.0000E+00  0.4000E+01
    -23.593  0.0000E+00  0.4000E+01
    -23.500  0.0000E+00  0.4000E+01
    -23.406  0.0000E+00  0.4000E+01
    -23.312  0.0000E+00  0.4000E+01
    -23.219  0.0000E+00  0.4000E+01
    -23.125  0.0000E+00  0.4000E+01
    -23.031  0.0000E+00  0.4000E+01
    -22.938  0.0000E+00  0.4000E+01
    -22.844  0.0000E+00  0.4000E+01
    -22.750  0.0000E+00  0.4000E+01
    -22.657  0.0000E+00  0.4000E+01
    -22.563  0.0000E+00  0.4000E+01
    -22.469  0.0000E+00  0.4000E+01
    -22.376  0.0000E+00  0.4000E+01
    -22.282  0.0000E+00  0.4000E+01
    -22.188  0.0000E+00  0.4000E+01
    -22.095  0.0000E+00  0.4000E+01
    -22.001  0.0000E+00  0.4000E+01
    -21.907  0.0000E+00  0.4000E+01
    -21.814  0.0000E+00  0.4000E+01
    -21.720  0.0000E+00  0.4000E+01
    -21.627  0.0000E+00  0.4000E+01
    -21.533  0.0000E+00  0.4000E+01
    -21.439  0.0000E+00  0.4000E+01
    -21.346  0.0000E+00  0.4000E+01
    -21.252  0.0000E+00  0.4000E+01
    -21.158  0.0000E+00  0.4000E+01
    -21.065  0.0000E+00  0.4000E+01
    -20.971  0.0000E+00  0.4000E+01
    -20.877  0.0000E+00  0.4000E+01
    -20.784  0.0000E+00  0.4000E+01
    -20.690  0.0000E+00  0.4000E+01
    -20.596  0.0000E+00  0.4000E+01
    -20.503  0.0000E+00  0.4000E+01
    -20.409  0.0000E+00  0.4000E+01
    -20.315  0.0000E+00  0.4000E+01
    -20.222  0.0000E+00  0.4000E+01
    -20.128  0.0000E+00  0.4000E+01
    -20.034  0.0000E+00  0.4000E+01
    -19.941  0.0000E+00  0.4000E+01
    -19.847  0.0000E+00  0.4000E+01
    -19.753  0.0000E+00  0.4000E+01
    -19.660  0.0000E+00  0.4000E+01
    -19.566  0.0000E+00  0.4000E+01
    -19.472  0.0000E+00  0.4000E+01
    -19.379  0.0000E+00  0.4000E+01
    -19.285  0.0000E+00  0.4000E+01
    -19.191  0.0000E+00  0.4000E+01
    -19.098  0.0000E+00  0.4000E+01
    -19.004  0.0000E+00  0.4000E+01
    -18.910  0.0000E+00  0.4000E+01
    -18.817  0.0000E+00  0.4000E+01
    -18.723  0.0000E+00  0.4000E+01
    -18.629  0.0000E+00  0.4000E+01
    -18.536  0.0000E+00  0.4000E+01
    -18.442  0.0000E+00  0.4000E+01
    -18.349  0.0000E+00  0.4000E+01
    -18.255  0.0000E+00  0.4000E+01
    -18.161  0.0000E+00  0.4000E+01
    -18.068  0.0000E+00  0.4000E+01
    -17.974  0.0000E+00  0.4000E+01
    -17.880  0.0000E+00  0.4000E+01
    -17.787  0.0000E+00  0.4000E+01
    -17.693  0.0000E+00  0.4000E+01
    -17.599  0.0000E+00  0.4000E+01
    -17.506  0.0000E+00  0.4000E+01
    -17.412  0.0000E+00  0.4000E+01
    -17.318  0.0000E+00  0.4000E+01
    -17.225  0.0000E+00  0.4000E+01
    -17.131  0.0000E+00  0.4000E+01
    -17.037  0.0000E+00  0.4000E+01
    -16.944  0.0000E+00  0.4000E+01
    -16.850  0.0000E+00  0.4000E+01
    -16.756  0.0000E+00  0.4000E+01
    -16.663  0.0000E+00  0.4000E+01
    -16.569  0.0000E+00  0.4000E+01
    -16.475  0.0000E+00  0.4000E+01
    -16.382  0.0000E+00  0.4000E+01
    -16.288  0.0000E+00  0.4000E+01
    -16.194  0.0000E+00  0.4000E+01
    -16.101  0.0000E+00  0.4000E+01
    -16.007  0.0000E+00  0.4000E+01
    -15.913  0.0000E+00  0.4000E+01
    -15.820  0.0000E+00  0.4000E+01
    -15.726  0.0000E+00  0.4000E+01
    -15.632  0.0000E+00  0.4000E+01
    -15.539  0.0000E+00  0.4000E+01
    -15.445  0.0000E+00  0.4000E+01
    -15.351  0.0000E+00  0.4000E+01
    -15.258  0.0000E+00  0.4000E+01
    -15.164  0.0000E+00  0.4000E+01
    -15.071  0.0000E+00  0.4000E+01
    -14.977  0.0000E+00  0.4000E+01
    -14.883  0.0000E+00  0.4000E+01
    -14.790  0.0000E+00  0.4000E+01
    -14.696  0.0000E+00  0.4000E+01
    -14.602  0.0000E+00  0.4000E+01
    -14.509  0.0000E+00  0.4000E+01
    -14.415  0.0000E+00  0.4000E+01
    -14.321  0.0000E+00  0.4000E+01
    -14.228  0.0000E+00  0.4000E+01
    -14.134  0.0000E+00  0.4000E+01
    -14.040  0.0000E+00  0.4000E+01
    -13.947  0.0000E+00  0.4000E+01
    -13.853  0.0000E+00  0.4000E+01
    -13.759  0.0000E+00  0.4000E+01
    -13.666  0.0000E+00  0.4000E+01
    -13.572  0.0000E+00  0.4000E+01
    -13.478  0.0000E+00  0.4000E+01
    -13.385  0.0000E+00  0.4000E+01
    -13.291  0.0000E+00  0.4000E+01
    -13.197  0.0000E+00  0.4000E+01
    -13.104  0.1126E-12  0.4000E+01
    -13.010  0.3970E-05  0.4000E+01
    -12.916  0.1595E+00  0.4015E+01
    -12.823  0.1234E+02  0.5170E+01
    -12.729  0.8814E+01  0.5996E+01
    -12.635  0.4464E-01  0.6000E+01
    -12.542  0.3763E-06  0.6000E+01
    -12.448  0.1221E-12  0.6000E+01
    -12.354  0.4079E-05  0.6000E+01
    -12.261  0.1618E+00  0.6015E+01
    -12.167  0.1238E+02  0.7174E+01
    -12.074  0.8772E+01  0.7996E+01
    -11.980  0.4392E-01  0.8000E+01
    -11.886  0.3654E-06  0.8000E+01
    -11.793  0.4742E-14  0.8000E+01
    -11.699  0.0000E+00  0.8000E+01
    -11.605  0.0000E+00  0.8000E+01
    -11.512  0.0000E+00  0.8000E+01
    -11.418  0.0000E+00  0.8000E+01
    -11.324  0.0000E+00  0.8000E+01
    -11.231  0.0000E+00  0.8000E+01
    -11.137  0.0000E+00  0.8000E+01
    -11.043  0.0000E+00  0.8000E+01
    -10.950  0.0000E+00  0.8000E+01
    -10.856  0.0000E+00  0.8000E+01
    -10.762  0.0000E+00  0.8000E+01
    -10.669  0.0000E+00  0.8000E+01
    -10.575  0.0000E+00  0.8000E+01
    -10.481  0.0000E+00  0.8000E+01
    -10.388  0.0000E+00  0.8000E+01
    -10.294  0.0000E+00  0.8000E+01
    -10.200  0.0000E+00  0.8000E+01
    -10.107  0.0000E+00  0.8000E+01
    -10.013  0.0000E+00  0.8000E+01
     -9.919  0.0000E+00  0.8000E+01
     -9.826  0.2629E-07  0.8000E+01
     -9.732  0.9788E-02  0.8001E+01
     -9.638  0.5387E+01  0.8505E+01
     -9.545  0.1545E+02  0.9953E+01
     -9.451  0.5056E+00  0.1000E+02
     -9.357  0.3865E-04  0.1000E+02
     -9.264  0.3535E-11  0.1000E+02
     -9.170  0.1566E-07  0.1000E+02
     -9.076  0.7221E-02  0.1000E+02
     -8.983  0.4832E+01  0.1045E+02
     -8.889  0.1590E+02  0.1194E+02
     -8.796  0.6145E+00  0.1200E+02
     -8.702  0.5782E-04  0.1200E+02
     -8.608  0.6570E-11  0.1200E+02
     -8.515  0.0000E+00  0.1200E+02
     -8.421  0.0000E+00  0.1200E+02
     -8.327  0.0000E+00  0.1200E+02
     -8.234  0.0000E+00  0.1200E+02
     -8.140  0.0000E+00  0.1200E+02
     -8.046  0.0000E+00  0.1200E+02
     -7.953  0.0000E+00  0.1200E+02
     -7.859  0.0000E+00  0.1200E+02
     -7.765  0.0000E+00  0.1200E+02
     -7.672  0.7830E-11  0.1200E+02
     -7.578  0.6477E-04  0.1200E+02
     -7.484  0.6490E+00  0.1206E+02
     -7.391  0.1602E+02  0.1356E+02
     -7.297  0.4680E+01  0.1400E+02
     -7.203  0.6613E-02  0.1400E+02
     -7.110  0.1349E-07  0.1400E+02
     -7.016  0.3746E-12  0.1400E+02
     -6.922  0.8827E-05  0.1400E+02
     -6.829  0.2414E+00  0.1402E+02
     -6.735  0.1351E+02  0.1529E+02
     -6.641  0.7576E+01  0.1600E+02
     -6.548  0.2716E-01  0.1600E+02
     -6.454  0.1551E-06  0.1600E+02
     -6.360  0.0000E+00  0.1600E+02
     -6.267  0.0000E+00  0.1600E+02
     -6.173  0.0000E+00  0.1600E+02
     -6.079  0.0000E+00  0.1600E+02
     -5.986  0.0000E+00  0.1600E+02
     -5.892  0.0000E+00  0.1600E+02
     -5.799  0.0000E+00  0.1600E+02
     -5.705  0.0000E+00  0.1600E+02
     -5.611  0.0000E+00  0.1600E+02
     -5.518  0.0000E+00  0.1600E+02
     -5.424  0.0000E+00  0.1600E+02
     -5.330  0.0000E+00  0.1600E+02
     -5.237  0.0000E+00  0.1600E+02
     -5.143  0.0000E+00  0.1600E+02
     -5.049  0.0000E+00  0.1600E+02
     -4.956  0.0000E+00  0.1600E+02
     -4.862  0.0000E+00  0.1600E+02
     -4.768  0.0000E+00  0.1600E+02
     -4.675  0.0000E+00  0.1600E+02
     -4.581  0.0000E+00  0.1600E+02
     -4.487  0.0000E+00  0.1600E+02
     -4.394  0.0000E+00  0.1600E+02
     -4.300  0.0000E+00  0.1600E+02
     -4.206  0.0000E+00  0.1600E+02
     -4.113  0.0000E+00  0.1600E+02
     -4.019  0.0000E+00  0.1600E+02
     -3.925  0.0000E+00  0.1600E+02
     -3.832  0.0000E+00  0.1600E+02
     -3.738  0.0000E+00  0.1600E+02
     -3.644  0.0000E+00  0.1600E+02
     -3.551  0.0000E+00  0.1600E+02
     -3.457  0.0000E+00  0.1600E+02
     -3.363  0.0000E+00  0.1600E+02
     -3.270  0.0000E+00  0.1600E+02
     -3.176  0.0000E+00  0.1600E+02
     -3.082  0.0000E+00  0.1600E+02
     -2.989  0.0000E+00  0.1600E+02
     -2.895  0.0000E+00  0.1600E+02
     -2.801  0.0000E+00  0.1600E+02
     -2.708  0.0000E+00  0.1600E+02
     -2.614  0.0000E+00  0.1600E+02
     -2.521  0.0000E+00  0.1600E+02
     -2.427  0.0000E+00  0.1600E+02
     -2.333  0.0000E+00  0.1600E+02
     -2.240  0.0000E+00  0.1600E+02
     -2.146  0.0000E+00  0.1600E+02
     -2.052  0.0000E+00  0.1600E+02
     -1.959  0.0000E+00  0.1600E+02
     -1.865  0.0000E+00  0.1600E+02
     -1.771  0.0000E+00  0.1600E+02
     -1.678  0.8547E-11  0.1600E+02
     -1.584  0.6855E-04  0.1600E+02
     -1.490  0.6668E+00  0.1606E+02
     -1.397  0.1608E+02  0.1757E+02
     -1.303  0.4605E+01  0.1800E+02
     -1.209  0.6327E-02  0.1800E+02
     -1.116  0.1252E-07  0.1800E+02
     -1.022  0.0000E+00  0.1800E+02
     -0.928  0.0000E+00  0.1800E+02
     -0.835  0.1682E-10  0.1800E+02
     -0.741  0.1060E-03  0.1800E+02
     -0.647  0.8197E+00  0.1808E+02
     -0.554  0.1649E+02  0.1962E+02
     -0.460  0.4045E+01  0.2000E+02
     -0.366  0.4465E-02  0.2000E+02
     -0.273  0.6960E-08  0.2000E+02
     -0.179  0.0000E+00  0.2000E+02
     -0.085  0.5234E-07  0.2000E+02
      0.008  0.1435E-01  0.2000E+02
      0.102  0.6111E+01  0.2057E+02
      0.196  0.1483E+02  0.2196E+02
      0.289  0.3997E+00  0.2200E+02
      0.383  0.5110E+00  0.2205E+02
      0.476  0.1021E+02  0.2300E+02
      0.570  0.1014E+02  0.2395E+02
      0.664  0.4918E+00  0.2400E+02
      0.757  0.7791E-04  0.2400E+02
      0.851  0.1534E-10  0.2400E+02
      0.945  0.0000E+00  0.2400E+02
      1.038  0.0000E+00  0.2400E+02
      1.132  0.0000E+00  0.2400E+02
      1.226  0.0000E+00  0.2400E+02
      1.319  0.0000E+00  0.2400E+02
      1.413  0.0000E+00  0.2400E+02
      1.507  0.0000E+00  0.2400E+02
      1.600  0.0000E+00  0.2400E+02
      1.694  0.0000E+00  0.2400E+02
      1.788  0.0000E+00  0.2400E+02
