
     Program PWSCF v.5.4.0 starts on 22Sep2019 at 18:35:15 

     This program is part of the open-source Quantum ESPRESSO suite
     for quantum simulation of materials; please cite
         "P. Giannozzi et al., J. Phys.:Condens. Matter 21 395502 (2009);
          URL http://www.quantum-espresso.org", 
     in publications or presentations arising from this work. More details at
     http://www.quantum-espresso.org/quote

           HOST :    @host@
           ARCH :    
             CC :    cc
            CPP :    cpp
            F90 :    mpif90
            F77 :    gfortran
         DFLAGS :    -D__GFORTRAN -D__STD_F95 -D__FFTW3 -D__MPI -D__PARA
      BLAS LIBS :    -lopenblas
    LAPACK LIBS :    -lopenblas
       FFT LIBS :    -lfftw3
      MASS LIBS :    

     Parallel version (MPI), running on    28 processors
     R & G space division:  proc/nbgrp/npool/nimage =      28
     Waiting for input...
     Reading input from standard input
Warning: card &IONS ignored
Warning: card / ignored
Warning: card &CELL ignored
Warning: card / ignored

     Current dimensions of program PWSCF are:
     Max number of different atomic species (ntypx) = 10
     Max number of k-points (npk) =  40000
     Max angular momentum in pseudopotentials (lmaxx) =  3

     IMPORTANT: XC functional enforced from input :
     Exchange-correlation      = PBE ( 1  4  3  4 0 0)
     Any further DFT definition will be discarded
     Please, verify this is what you really want


     gamma-point specific algorithms are used

     Subspace diagonalization in iterative solution of the eigenvalue problem:
     a serial algorithm will be used


     Parallelization info
     --------------------
     sticks:   dense  smooth     PW     G-vecs:    dense   smooth      PW
     Min         445     445    110                37558    37558    4694
     Max         448     448    112                37564    37564    4708
     Sum       12517   12517   3125              1051747  1051747  131683
     Tot        6259    6259   1563



     bravais-lattice index     =            1
     lattice parameter (alat)  =      18.8973  a.u.
     unit-cell volume          =    6748.3346 (a.u.)^3
     number of atoms/cell      =            5
     number of atomic types    =            2
     number of electrons       =         8.00
     number of Kohn-Sham states=            4
     kinetic-energy cutoff     =     110.0000  Ry
     charge density cutoff     =     440.0000  Ry
     convergence threshold     =      1.0E-06
     mixing beta               =       0.5000
     number of iterations used =            8  plain     mixing
     Exchange-correlation      = PBE ( 1  4  3  4 0 0)

     celldm(1)=  18.897261  celldm(2)=   0.000000  celldm(3)=   0.000000
     celldm(4)=   0.000000  celldm(5)=   0.000000  celldm(6)=   0.000000

     crystal axes: (cart. coord. in units of alat)
               a(1) = (   1.000000   0.000000   0.000000 )  
               a(2) = (   0.000000   1.000000   0.000000 )  
               a(3) = (   0.000000   0.000000   1.000000 )  

     reciprocal axes: (cart. coord. in units 2 pi/alat)
               b(1) = (  1.000000  0.000000  0.000000 )  
               b(2) = (  0.000000  1.000000  0.000000 )  
               b(3) = (  0.000000  0.000000  1.000000 )  


     PseudoPot. # 1 for  H read from file:
     ../pseudo/H.tm.pbe.UPF
     MD5 check sum: 4b614d66af87240b7a5107bfa527a767
     Pseudo is Norm-conserving, Zval =  1.0
     Generated using "atomic" code by A. Dal Corso  v.5.2.0
     Using radial grid of  929 points,  0 beta functions with: 

     PseudoPot. # 2 for  C read from file:
     ../pseudo/C.tm.pbe.UPF
     MD5 check sum: a4f27fcb9b24331b00ace8e732a7e062
     Pseudo is Norm-conserving, Zval =  4.0
     Generated using "atomic" code by A. Dal Corso  v.5.2.0
     Using radial grid of 1073 points,  1 beta functions with: 
                l(1) =   1

     atomic species   valence    mass     pseudopotential
        H              1.00     1.00000      H( 1.00)
        C              4.00     1.00000      C( 1.00)

     No symmetry found



   Cartesian axes

     site n.     atom                  positions (alat units)
         1           H   tau(   1) = (   0.5432790   0.4199660   0.3669390  )
         2           H   tau(   2) = (   0.3983770   0.4814060   0.4573280  )
         3           H   tau(   3) = (   0.5498050   0.5774590   0.4493920  )
         4           H   tau(   4) = (   0.5449300   0.4249410   0.5463510  )
         5           C   tau(   5) = (   0.5087070   0.4760670   0.4540980  )

     number of k points=     1
                       cart. coord. in units 2pi/alat
        k(    1) = (   0.0000000   0.0000000   0.0000000), wk =   2.0000000

     Dense  grid:   525874 G-vectors     FFT dimensions: ( 128, 128, 128)

     Largest allocated arrays     est. size (Mb)     dimensions
        Kohn-Sham Wavefunctions         0.14 Mb     (    2354,    4)
        NL pseudopotentials             0.11 Mb     (    2354,    3)
        Each V/rho on FFT grid          1.25 Mb     (   81920)
        Each G-vector array             0.14 Mb     (   18782)
        G-vector shells                 0.02 Mb     (    2785)
     Largest temporary arrays     est. size (Mb)     dimensions
        Auxiliary wavefunctions         0.29 Mb     (    2354,   16)
        Each subspace H/S matrix        0.00 Mb     (      16,   16)
        Each <psi_i|beta_j> matrix      0.00 Mb     (       3,    4)
        Arrays for rho mixing          10.00 Mb     (   81920,    8)

     Initial potential from superposition of free atoms
     Check: negative starting charge=   -0.000384

     starting charge    7.99992, renormalised to    8.00000

     negative rho (up, down):  3.838E-04 0.000E+00
     Starting wfc are    8 randomized atomic wfcs

     total cpu time spent up to now is        2.9 secs

     per-process dynamical memory:   430.7 Mb

     Self-consistent Calculation

     iteration #  1     ecut=   110.00 Ry     beta=0.50
     Davidson diagonalization with overlap
     ethr =  1.00E-02,  avg # of iterations =  2.0

     negative rho (up, down):  1.813E-04 0.000E+00

     total cpu time spent up to now is        3.4 secs

     total energy              =     -16.02302683 Ry
     Harris-Foulkes estimate   =     -16.40528168 Ry
     estimated scf accuracy    <       0.67963607 Ry

     iteration #  2     ecut=   110.00 Ry     beta=0.50
     Davidson diagonalization with overlap
     ethr =  8.50E-03,  avg # of iterations =  2.0

     negative rho (up, down):  9.526E-05 0.000E+00

     total cpu time spent up to now is        3.9 secs

     total energy              =     -16.15388290 Ry
     Harris-Foulkes estimate   =     -16.17322153 Ry
     estimated scf accuracy    <       0.05021882 Ry

     iteration #  3     ecut=   110.00 Ry     beta=0.50
     Davidson diagonalization with overlap
     ethr =  6.28E-04,  avg # of iterations =  1.0

     negative rho (up, down):  5.372E-06 0.000E+00

     total cpu time spent up to now is        4.2 secs

     total energy              =     -16.15222911 Ry
     Harris-Foulkes estimate   =     -16.15769222 Ry
     estimated scf accuracy    <       0.01148441 Ry

     iteration #  4     ecut=   110.00 Ry     beta=0.50
     Davidson diagonalization with overlap
     ethr =  1.44E-04,  avg # of iterations =  3.0

     negative rho (up, down):  4.741E-06 0.000E+00

     total cpu time spent up to now is        4.7 secs

     total energy              =     -16.15414558 Ry
     Harris-Foulkes estimate   =     -16.15647847 Ry
     estimated scf accuracy    <       0.00543303 Ry

     iteration #  5     ecut=   110.00 Ry     beta=0.50
     Davidson diagonalization with overlap
     ethr =  6.79E-05,  avg # of iterations =  2.0

     negative rho (up, down):  2.542E-06 0.000E+00

     total cpu time spent up to now is        5.2 secs

     total energy              =     -16.15452134 Ry
     Harris-Foulkes estimate   =     -16.15464194 Ry
     estimated scf accuracy    <       0.00029531 Ry

     iteration #  6     ecut=   110.00 Ry     beta=0.50
     Davidson diagonalization with overlap
     ethr =  3.69E-06,  avg # of iterations =  3.0

     negative rho (up, down):  1.653E-07 0.000E+00

     total cpu time spent up to now is        5.8 secs

     total energy              =     -16.15465637 Ry
     Harris-Foulkes estimate   =     -16.15465373 Ry
     estimated scf accuracy    <       0.00000649 Ry

     iteration #  7     ecut=   110.00 Ry     beta=0.50
     Davidson diagonalization with overlap
     ethr =  8.11E-08,  avg # of iterations =  1.0

     total cpu time spent up to now is        6.2 secs

     total energy              =     -16.15465362 Ry
     Harris-Foulkes estimate   =     -16.15465660 Ry
     estimated scf accuracy    <       0.00000878 Ry

     iteration #  8     ecut=   110.00 Ry     beta=0.50
     Davidson diagonalization with overlap
     ethr =  8.11E-08,  avg # of iterations =  1.0

     total cpu time spent up to now is        6.6 secs

     total energy              =     -16.15465318 Ry
     Harris-Foulkes estimate   =     -16.15465400 Ry
     estimated scf accuracy    <       0.00000234 Ry

     iteration #  9     ecut=   110.00 Ry     beta=0.50
     Davidson diagonalization with overlap
     ethr =  2.93E-08,  avg # of iterations =  2.0

     total cpu time spent up to now is        7.0 secs

     End of self-consistent calculation

          k = 0.0000 0.0000 0.0000 ( 65842 PWs)   bands (ev):

   -16.7828  -9.3218  -9.2426  -9.1199

     highest occupied level (ev):    -9.1199

!    total energy              =     -16.15465324 Ry
     Harris-Foulkes estimate   =     -16.15465342 Ry
     estimated scf accuracy    <       0.00000026 Ry

     The total energy is the sum of the following terms:

     one-electron contribution =     -40.05107332 Ry
     hartree contribution      =      20.84935396 Ry
     xc contribution           =      -6.32659509 Ry
     ewald contribution        =       9.37366121 Ry

     convergence has been achieved in   9 iterations

     Forces acting on atoms (Ry/au):

     atom    1 type  1   force =    -0.00361194   -0.00330589   -0.00449491
     atom    2 type  1   force =     0.01121775   -0.00241593   -0.00406923
     atom    3 type  1   force =     0.00059366    0.00169513    0.00235544
     atom    4 type  1   force =    -0.00636084    0.01174672   -0.01736459
     atom    5 type  2   force =    -0.00183863   -0.00772003    0.02357329

     Total force =     0.036053     Total SCF correction =     0.000338


     entering subroutine stress ...

          total   stress  (Ry/bohr**3)                   (kbar)     P=   -0.70
  -0.00000633   0.00000181  -0.00000068         -0.93      0.27     -0.10
   0.00000181  -0.00000264   0.00000380          0.27     -0.39      0.56
  -0.00000068   0.00000380  -0.00000539         -0.10      0.56     -0.79


     init_run     :      2.51s CPU      2.53s WALL (       1 calls)
     electrons    :      3.99s CPU      4.06s WALL (       1 calls)
     forces       :      0.89s CPU      0.90s WALL (       1 calls)
     stress       :      1.09s CPU      1.10s WALL (       1 calls)

     Called by init_run:
     wfcinit      :      0.20s CPU      0.20s WALL (       1 calls)
     potinit      :      0.93s CPU      0.95s WALL (       1 calls)

     Called by electrons:
     c_bands      :      1.51s CPU      1.53s WALL (       9 calls)
     sum_band     :      0.49s CPU      0.49s WALL (       9 calls)
     v_of_rho     :      1.90s CPU      1.95s WALL (      10 calls)
     mix_rho      :      0.25s CPU      0.25s WALL (       9 calls)

     Called by c_bands:
     init_us_2    :      0.04s CPU      0.05s WALL (      19 calls)
     regterg      :      1.48s CPU      1.50s WALL (       9 calls)

     Called by sum_band:

     Called by *egterg:
     h_psi        :      1.62s CPU      1.64s WALL (      27 calls)
     g_psi        :      0.01s CPU      0.01s WALL (      17 calls)
     rdiaghg      :      0.00s CPU      0.00s WALL (      26 calls)

     Called by h_psi:
     add_vuspsi   :      0.00s CPU      0.00s WALL (      27 calls)

     General routines
     calbec       :      0.48s CPU      0.48s WALL (      32 calls)
     fft          :      1.82s CPU      1.88s WALL (     117 calls)
     fftw         :      1.17s CPU      1.19s WALL (     122 calls)

     Parallel routines
     fft_scatter  :      1.20s CPU      1.25s WALL (     239 calls)

     PWSCF        :     8.85s CPU         8.99s WALL


   This run was terminated on:  18:35:24  22Sep2019            

=------------------------------------------------------------------------------=
   JOB DONE.
=------------------------------------------------------------------------------=
