-1.411030000000000062e-01 2.530161000000000104e+00 -3.269600000000000284e-02 -1.182887000000000022e+00 -2.329527000000000125e+00 1.827099999999999905e-02 -7.649599999999999733e-01 -2.427944999999999798e+00 4.028999999999999942e-02 9.748299999999999743e-01 -1.027850000000000014e-01 -1.065200000000000001e-02 5.613930000000000309e-01 1.165820999999999996e+00 -1.658458999999999905e+00 5.527269999999999683e-01 1.164274000000000031e+00 1.643246999999999902e+00
