-1.374436482930056158e+00 -1.300455875270197126e+00 2.514704026504455472e-02 -1.300455875270197126e+00 -3.779882892199563749e+00 4.173697151957134893e-02 2.514704026504455472e-02 4.173697151957134893e-02 -2.656673393064074240e+00
