LAMMPS data file via write_data, version 23 Jun 2022, timestep = 100000

1296 atoms
2 atom types

1.174316245757126 18.88418621230623 xlo xhi
1.174316245757126 18.88418621230623 ylo yhi
1.174316245757126 18.88418621230623 zlo zhi

Masses

1 15.999 # O
2 1.00784 # H

Atoms # atomic

12 2 1.7007562875985833 3.5861717041306984 3.6621470911485736 0 0 0
13 1 2.6389195762144677 2.636965444978477 2.8639355981364303 0 0 0
14 2 3.29295265982272 2.2607766212254328 3.487252897603183 0 0 0
15 2 3.3904636236642016 2.982797480087366 2.306611912684162 0 0 0
26 2 5.2155403865142596 2.2296852901471507 2.221972447862453 0 0 0
34 1 4.192202215953284 4.17576230306002 4.262593478654578 0 0 0
36 2 3.6332082869010813 4.770959280912578 3.6599608901459693 0 0 0
42 2 2.613052821959672 4.830746013969032 2.1012587266698937 0 0 0
17 2 5.137521442190004 4.929046814113345 2.189034419586937 0 0 0
44 2 1.9107061281786346 1.762101294636809 4.706976119488316 0 0 0
21 2 4.7876133408217125 1.947930712337142 5.106004338368148 0 0 0
24 2 2.215682134929904 4.853193434902291 4.750434242604187 0 0 0
48 2 5.408648449541402 4.950118379248366 5.006570088556968 0 0 0
39 2 4.786068327669492 3.6393451705858633 3.765676276168371 0 0 0
35 2 3.053897226776569 3.1073061045142922 5.359985177750834 0 0 0
3 2 1.8345644864368391 1.824635390668012 1.5372850594041112 0 0 0
37 1 5.803120843317717 2.9155011676855334 2.721673344879581 0 0 0
19 1 5.39585692777156 2.5362569829526898 5.7093765174757145 0 0 0
4 1 4.309885327379172 3.7216559377068297 1.4433297333566266 0 0 0
16 1 5.6236188920561165 5.617394670848814 2.777046694951762 0 0 0
38 2 6.826230681388712 3.6664872417302994 1.9735966228029942 0 0 0
58 1 6.915171581130012 4.358067025269047 4.239739313355853 0 0 0
59 2 6.27602013616066 4.920352555169891 3.5224799233362813 0 0 0
60 2 8.18237797954725 3.3793439279952917 3.5373362072670336 0 0 0
78 2 8.377071225164205 4.980821172507466 2.08110499084659 0 0 0
80 2 6.243348624282691 2.1750550184151787 3.2602311679396285 0 0 0
81 2 7.678357987454981 1.4253424499249157 4.736548688648764 0 0 0
56 2 9.568256245505614 1.985767291819894 3.7692559628030504 0 0 0
61 1 8.736443672111413 2.873337954247283 2.9161092308854046 0 0 0
63 2 9.253282633698664 3.2439385659199305 2.2462900314278365 0 0 0
83 2 9.67350058535814 3.678871847725302 4.8937731077097055 0 0 0
84 2 9.677306111254701 4.865656359403943 3.833858596222697 0 0 0
20 2 6.412596235453243 3.685473182767401 4.7153006922589125 0 0 0
72 2 7.79126421410699 4.7707559533147865 4.5912202064150165 0 0 0
62 2 7.772658423731825 1.6031209557155996 1.9202823577955725 0 0 0
88 1 8.760024467765241 5.660195392575261 2.7316101961892993 0 0 0
55 1 10.26393861818266 1.2595544566179813 4.182138693629159 0 0 0
49 1 7.174529918040051 18.717045967401184 1.4049060704690506 0 -1 0
76 1 7.320325247675323 4.193949635941822 1.316964682912005 0 0 0
82 1 10.23310527395467 4.324618461204901 4.440881197731024 0 0 0
57 2 11.103124349093148 1.970094517400848 5.173812592028037 0 0 0
54 2 10.9046730102806 4.758571710889598 1.619208673929561 0 0 0
85 1 11.408226216535647 2.6829038469101825 2.6508830834737216 0 0 0
86 2 10.775550548284883 1.601849281545312 1.8043153723630203 0 0 0
87 2 10.830644529719033 3.1932624997034935 3.2841560012969877 0 0 0
106 1 12.801771386125102 4.139327542533994 4.095017868776864 0 0 0
107 2 12.452426244214717 3.5289909759188625 4.670190642252815 0 0 0
110 2 14.075876258572734 1.9669980980092887 2.245551731368898 0 0 0
125 2 12.468221327059076 3.5360758358268574 1.902142202516762 0 0 0
128 2 12.22847847931176 2.3576479615854096 3.1001013028867037 0 0 0
65 2 12.198430488822696 5.1361909276327715 3.302539342635847 0 0 0
138 2 13.489588591896258 4.7628482092151145 1.942347262569991 0 0 0
140 2 13.88238490622226 2.06811583350952 5.100507446499274 0 0 0
96 2 10.906282863326922 5.198580826458684 5.281884695370107 0 0 0
108 2 14.161322376713732 4.89525649681897 5.210908421923667 0 0 0
111 2 13.538890895714085 3.5855250322747487 3.7924193177466226 0 0 0
124 1 12.955757903810493 4.079190437095241 1.2569569576401418 0 0 0
109 1 14.54461541395874 2.6535773569784014 2.728699311374345 0 0 0
127 1 12.94653386830158 1.386383469877738 4.223768237768409 0 0 0
28 1 1.4572139381447364 4.2886804032765395 18.88141446636461 0 0 -1
10 1 1.3341770997277909 4.3489447586276935 4.058750644712113 0 0 0
104 2 15.067885991656452 2.1015327311195384 3.3516359034609167 0 0 0
141 2 15.19304678794902 3.5919477075742274 4.733762235893232 0 0 0
11 2 18.06933332290733 3.457025969651802 5.0409908988441785 -1 0 0
33 2 18.341436625602157 1.8103852816813584 3.5007068524403815 -1 0 0
101 2 15.42799163591259 3.4916349352513696 1.5827065979908306 0 0 0
102 2 16.993913160956367 4.999166604990599 2.03596918507601 0 0 0
105 2 16.594040662988142 1.629989618032684 4.7708131461385 0 0 0
130 1 15.912438035946384 4.1486612944379715 4.17611308220115 0 0 0
131 2 17.203062349460243 5.045672181978966 5.037685164672729 0 0 0
132 2 16.417997205111394 3.6133380322125634 3.270680690898466 0 0 0
133 1 17.188036115071373 2.868933904295119 2.510685733150077 0 0 0
134 2 16.675601301281265 2.274682194022094 1.910297540689291 0 0 0
135 2 17.95870564716905 3.18179503967892 2.0723546041608656 0 0 0
137 2 15.417566732142902 4.795041663679856 3.617151691870281 0 0 0
114 2 18.292431189845427 5.046996187292033 3.0734096479418787 0 0 0
100 1 15.963018224502685 4.201547061296691 18.842731864323564 0 0 -1
40 1 2.7828501069041067 5.69767465640806 2.5540871566817582 0 0 0
41 2 2.144387830396444 6.057635677825673 3.090465114397255 0 0 0
147 2 1.6623792695593587 7.6946049504821605 1.4598645453878516 0 0 0
151 1 4.204703249875655 7.290437846778346 4.163862795730685 0 0 0
152 2 4.922730109463684 6.184357064152859 3.2364582947412166 0 0 0
153 2 3.440629031967579 6.226252786258958 4.823798512012226 0 0 0
158 2 3.7558614983277536 7.959771993923781 3.4558750342634434 0 0 0
170 2 3.8356820669611373 6.661212363000139 1.7366691179568652 0 0 0
171 2 5.2454235925468655 8.045955403415338 2.0460242737789676 0 0 0
176 2 1.8817977346574206 7.722036462839969 4.343324115026992 0 0 0
150 2 3.3230715455487263 9.278011117927965 2.0150481718548003 0 0 0
157 1 2.8870689397079428 8.487118019635155 2.4760741998253355 0 0 0
159 2 2.148580280460386 9.063780120305868 3.018669555679712 0 0 0
179 2 4.973364947529862 9.006127586956598 3.3144719517938306 0 0 0
180 2 3.510996924575981 9.43481958253908 4.587054376132461 0 0 0
164 2 4.80085218807306 7.710581615705487 4.794926338784593 0 0 0
169 1 4.507303023777371 7.011910341673118 18.79160625604776 0 0 -1
181 1 5.672842853899742 8.68334246366499 2.7169302428323254 0 0 0
187 1 2.7018165228174365 8.602550531812263 5.617371596641553 0 0 0
163 1 5.492900525803838 8.698405737599185 5.602720419604108 0 0 0
182 2 6.5009714878347 7.907702914554491 3.632877105417258 0 0 0
18 2 6.35458875910865 6.689161707063762 1.6518660922479564 0 0 0
90 2 7.914197542260017 5.931103139538203 3.1249063164806468 0 0 0
206 2 7.685810769873655 7.663072666828603 1.5883923275911396 0 0 0
223 1 7.079564766610339 7.151370727116968 3.976244629947257 0 0 0
224 2 6.3425217009833785 6.39177075261498 4.8987391118010155 0 0 0
225 2 7.6067471309442585 7.803211658407108 4.53787361619239 0 0 0
200 2 8.8333377477502 8.011631678804726 3.2319754787437063 0 0 0
183 2 6.625055099478531 9.360737957203867 1.6789488762523077 0 0 0
203 2 6.535157632550021 9.68120437941834 4.776065462234709 0 0 0
207 2 7.73641007008224 9.55632975512405 3.581959084450952 0 0 0
198 2 9.191946666971553 9.094071104515875 2.2742493058762268 0 0 0
205 1 8.410907176578238 8.589503965023166 2.5766831888354353 0 0 0
71 2 9.078726050356986 6.102345964876575 4.79085207554487 0 0 0
227 2 8.974586543884786 9.254724940728588 5.277482287447557 0 0 0
89 2 9.457352444912347 6.787567378333852 1.8375091605817815 0 0 0
235 1 8.456322886659603 8.46846134770952 5.608189229561178 0 0 0
199 1 10.130477943911593 7.298898740703828 3.9718900474357675 0 0 0
193 1 7.048693956500028 7.058890588202689 18.83363285196747 0 0 -1
64 1 11.454750691643733 5.598218337085903 2.6676901378145974 0 0 0
201 2 10.60896656182066 6.671502327965656 3.375050317779527 0 0 0
218 2 10.706364051626089 8.369252955310941 1.9368395752324123 0 0 0
66 2 12.108026256271279 6.303069715190056 2.5096800358187146 0 0 0
230 2 12.453417028864537 7.873225489196961 3.6157192630617274 0 0 0
243 2 13.744013117180433 7.865631547909807 1.6268146756746755 0 0 0
271 1 13.094315214660746 7.21097569501605 4.047438764615265 0 0 0
272 2 12.19423658148952 6.090465612989553 5.019595064782823 0 0 0
273 2 13.86707066152573 6.345854049166853 3.312825419001808 0 0 0
229 1 11.31660852426484 8.72953168373552 2.537159410922376 0 0 0
231 2 10.611095942612815 9.707376182030522 3.5077262948362664 0 0 0
251 2 12.411959542047622 9.192343949564167 4.786310873445753 0 0 0
255 2 14.04567063539109 9.211987421858202 3.228075919602573 0 0 0
270 2 11.876156793586253 9.316931063622665 2.039881407351416 0 0 0
212 2 10.634505734158727 7.758216735098856 4.640722590593295 0 0 0
284 2 13.81060108484123 7.738332440934667 4.792671102839169 0 0 0
211 1 11.502087782564132 8.413048257584329 5.549856162401873 0 0 0
253 1 14.679079791281485 8.69811025786094 2.513332585301683 0 0 0
217 1 10.05637248216877 7.2018893654738045 18.818610569384308 0 0 -1
136 1 14.519224740975368 5.5694707581007155 2.6818137113932936 0 0 0
175 1 1.2230767473938204 7.118283493295403 3.946972327158318 0 0 0
112 1 17.518083657813182 5.57922250391382 2.6718099408007756 0 0 0
249 2 16.406504412532186 6.1375957409791795 3.5384722105440263 0 0 0
120 2 15.181093804444085 6.019631828534582 4.928618608781347 0 0 0
254 2 15.326611466687114 9.467649060086655 1.7652333562901381 0 0 0
144 2 18.327280239604114 6.623367824693863 4.607356317766584 0 0 0
113 2 18.502195568243852 6.564678654134468 1.8625010706768865 0 0 0
177 2 18.158525283473733 7.981472576379016 3.0501280807699507 -1 0 0
247 1 15.951246742535115 6.899882745868466 4.073025868687161 0 0 0
248 2 15.110724749248629 8.154005989734877 3.205108348996382 0 0 0
266 2 16.514885955595954 7.42808815347877 1.869832301710479 0 0 0
156 2 17.96640517351259 9.149315149572939 4.816924934872798 -1 0 0
276 2 15.287138287074283 8.94965912229037 5.268303077115469 0 0 0
277 1 17.39065935839738 8.427313228920031 2.6236420668279297 0 0 0
278 2 16.499761615839745 9.547963325705663 3.549244712755972 0 0 0
279 2 17.82536501313924 9.040352386195803 2.0485852003977194 0 0 0
261 2 16.596718500537808 7.328371694213788 4.647596840026319 0 0 0
1007 2 14.971516810237429 6.179098082370275 1.9200479497932528 0 0 1
274 1 15.778386010517792 10.0117207717516 4.1392868612593 0 0 0
259 1 17.34573193851034 8.611656300821226 5.359088493112173 0 0 0
178 1 4.007749085059512 10.170844900225552 3.9666611876411473 0 0 0
154 1 1.337012211886634 9.764239521295313 3.9467795301793647 0 0 0
173 2 1.6942194642537014 10.475458190541557 1.5898202509103445 0 0 0
184 1 2.6107776834353107 11.631110272366977 2.5004438829523936 0 0 0
185 2 3.1033278229935455 11.024501975002103 3.0659977770787736 0 0 0
162 2 5.1469368381338185 10.973797232485342 2.2034370027561936 0 0 0
186 2 3.187056666776292 12.196584303899117 2.0211053029339263 0 0 0
290 2 1.7111527404975653 14.089383459334863 2.2092490416103656 0 0 0
295 1 4.080438511910096 12.945991996902384 4.330243794095953 0 0 0
191 2 4.665177252478513 10.644082312894437 4.310173233572065 0 0 0
168 2 3.131385129190164 12.316297442534694 5.212388566455774 0 0 0
333 2 1.5766359331038435 13.641742811217451 4.632258147741451 0 0 0
308 2 5.144002424238906 14.061036814925684 4.990521110535189 0 0 0
314 2 4.5847655177892594 13.680500420206872 1.6929372936420513 0 0 0
167 2 1.6296693667833118 10.434717102302667 4.641131250159917 0 0 0
296 2 4.745015031576154 12.542060912289253 3.6332504244310972 0 0 0
297 2 3.420678584306052 13.3896561853449 3.7743488093240676 0 0 0
321 2 1.664663307366397 12.604904388892754 3.5481454394070155 0 0 0
301 1 2.3932266614867697 14.601297506428406 2.658798477557408 0 0 0
166 1 2.492136216936826 11.569453950845007 5.675776310246926 0 0 0
202 1 7.047675609979443 10.198322808525694 4.193325993975092 0 0 0
190 1 5.597012468168111 11.405865489073738 5.66574686123471 0 0 0
160 1 5.611987542286911 11.63023282503769 2.7103119430108857 0 0 0
161 2 6.192640180468956 11.228289759099935 3.314471650297631 0 0 0
204 2 7.877105476719667 11.222657579074468 4.8400875175235445 0 0 0
232 1 8.44632384593644 11.442838574951173 2.6766722631246656 0 0 0
234 2 9.049131139144706 10.942528491224959 3.361657775161114 0 0 0
233 2 7.682348241177564 12.649835636151792 3.570951435935452 0 0 0
327 2 6.236794587289637 13.907404696162253 3.324876736813721 0 0 0
338 2 6.7882745911601345 12.592122252918953 2.0104310432816948 0 0 0
339 2 8.277086382417737 13.769811029761797 1.8485633809910793 0 0 0
367 1 7.11634533148331 13.28861235409704 4.053683587273621 0 0 0
368 2 6.107209202592694 11.9279272398269 5.09996318803611 0 0 0
369 2 7.803190646752801 13.596924047827429 4.745275949166616 0 0 0
345 2 9.305730690307783 12.216833567395621 5.1019530322140465 0 0 0
351 2 9.36806699961245 13.645249625188617 3.7064296931314975 0 0 0
362 2 9.03944956910561 11.867468870181023 2.107846206000101 0 0 0
222 2 7.382810718525592 10.695391768845582 1.8745106830036864 0 0 0
343 1 9.948663158864555 13.086858126761356 4.258058476208738 0 0 0
226 1 10.038569385594498 10.125098619109217 4.155618170229288 0 0 0
361 1 9.955142173841457 12.968179578513023 18.850459872601927 0 0 -1
250 1 13.14059621449444 9.894513773416646 4.086387365377196 0 0 0
209 2 10.512309027913755 12.750684027080213 3.4764037995080153 0 0 0
208 1 11.496066342209263 11.689709470570168 2.581725917645867 0 0 0
210 2 10.80793949663938 11.22222286896266 1.850303106286961 0 0 0
228 2 10.437746912544812 10.737943016735683 4.792968156659315 0 0 0
252 2 11.887030785581578 10.853653269785504 3.0105717090533464 0 0 0
281 2 13.312599272527954 10.768142813182287 1.6800722178061163 0 0 0
344 2 10.804740244620286 13.958301929675457 5.020659143396053 0 0 0
375 2 10.924860300305246 13.93816861821528 2.0810778094112976 0 0 0
374 2 12.513505023009907 13.506522967623203 3.5838221972526965 0 0 0
387 2 12.287241605550067 12.5096229870211 1.926350983989202 0 0 0
415 1 13.20132001820514 13.080176424195399 4.1661623525056015 0 0 0
416 2 13.764670978435278 12.515794039914837 3.4937134973262265 0 0 0
417 2 12.103538782644007 12.04834548310429 4.980467523382044 0 0 0
263 2 13.629110584925666 10.45463376626072 4.713594165584865 0 0 0
428 2 14.096390213261559 13.774657997131333 5.172961580645639 0 0 0
386 2 13.790930280155793 13.959016317978337 1.9903690125789901 0 0 0
373 1 11.470541580407291 14.440561376862634 2.759452139966511 0 0 0
238 1 11.534719023473313 11.5381937395148 5.5804734184319384 0 0 0
385 1 12.971331821743805 12.964801028754897 1.226952822722646 0 0 0
280 1 14.439969320584089 11.566670408520986 2.562647639057043 0 0 0
427 1 14.471423801210815 14.376522464090788 5.8233026898120706 0 0 0
319 1 18.755000180021945 12.916385125246828 4.087522725163556 -1 0 0
262 1 14.356104843336599 11.545156396698372 5.747307403245029 0 0 0
411 2 14.920063059962617 12.192003986113386 1.8640342479942085 0 0 0
288 2 18.00407948746262 11.767410344579972 5.0492395721612295 0 0 0
282 2 15.167689946047757 11.051357787068355 3.0194693945441946 0 0 0
155 2 18.318315770135147 10.305126589025921 3.498438162906105 -1 0 0
246 2 16.683911980160225 10.989994793895042 1.9961488684442812 0 0 0
256 1 17.29258554864602 11.423472935589508 2.6783515145216548 0 0 0
275 2 16.371529587193315 10.686681955471071 4.7470599603723596 0 0 0
257 2 16.21826013172914 12.596888959062369 3.6924112854699342 0 0 0
258 2 17.810124263067912 12.178926967811863 2.090142677033687 0 0 0
320 2 17.451477631902904 13.915673124857996 3.174875898087909 -1 0 0
391 1 15.83096350642793 13.220272207082624 4.355205986880113 0 0 0
392 2 14.694535116444914 12.285122635212279 5.263552503446308 0 0 0
393 2 15.444739269555164 13.760147966666075 3.598530601357772 0 0 0
422 2 16.4554777084909 13.511423873368928 1.4631606973114533 0 0 0
404 2 16.754821667419264 13.928416513891388 5.021376104133465 0 0 0
397 1 14.424649370519756 14.46870646064154 2.5433873165492447 0 0 0
409 1 15.934144950254149 12.854703463221892 18.729042340428276 0 0 -1
31 1 1.1753049610957256 1.2834032591140356 4.238930631223996 0 0 0
325 1 5.5343514778675 14.36691369918355 2.601077929137694 0 0 0
7 1 4.08055110652456 18.874807356870125 4.32659140601122 0 -1 0
302 2 1.809744279830992 15.386378955873209 3.3285697981023965 0 0 0
303 2 2.900143671349969 15.166969464404115 1.966689905061273 0 0 0
8 2 4.5133376905589495 18.311480509629334 3.593115359546545 0 -1 0
9 2 3.48821734879086 18.14025021076514 5.047653142765242 0 -1 0
32 2 2.1703438494664913 18.13937700114568 3.0638307947940993 0 -1 0
294 2 4.314700031818926 16.639769097468616 1.7742924862715572 0 0 0
322 1 3.9299162303583155 15.609177575165843 4.0213043056944855 0 0 0
323 2 4.607611928795285 15.082497913504179 3.3367072658921373 0 0 0
324 2 3.191057544621528 17.007673812109623 3.3663932219049943 0 0 0
328 1 2.583811287009442 17.382389970474616 2.6198733679063695 0 0 0
329 2 3.9042774541429903 18.590285309948225 2.0934035769405117 0 0 0
332 2 3.34771457764961 14.974367903024602 5.2719275105364884 0 0 0
311 2 1.7925978359148103 16.463204823824228 4.758198838391328 0 0 0
335 2 4.560896625523156 16.143272593856913 4.529081428802841 0 0 0
330 2 1.597700455234854 16.345395228446584 1.6329965336861778 0 0 0
304 1 5.505063421127892 17.341402596973328 2.7207361662704974 0 0 0
298 1 1.2233234324742202 16.028384948345334 4.140089057489152 0 0 0
310 1 2.5976281724868135 17.511750290874044 5.450684426409189 0 0 0
79 1 7.090498537895245 18.696298867538964 4.121478753654488 0 -1 0
73 1 9.895972825621904 1.2267346136652577 1.3568813037142462 0 0 0
349 1 8.784130139755666 14.524794688601881 2.462871075345646 0 0 0
381 2 9.13450637997048 15.006947891264216 5.175915469836383 0 0 0
326 2 6.085969750172652 15.034244381393394 2.141282314850108 0 0 0
350 2 9.775596500843617 15.434054742079988 1.7131696203919118 0 0 0
305 2 6.284491191717346 17.653875721639505 2.229646523693875 0 0 0
306 2 5.884519391377122 16.826595119449394 3.507912571286371 0 0 0
346 1 7.034974866119682 15.766329131192203 4.204658449890701 0 0 0
347 2 8.170284179713681 15.129954306096021 3.024222973190859 0 0 0
348 2 6.593049046660418 15.151100012137611 4.826950449230781 0 0 0
365 2 7.835857762915149 16.585715531844762 1.820882497259765 0 0 0
377 2 7.883973989387283 17.81857827027518 3.512457014469587 0 0 0
75 2 9.290329855038152 18.290270587320308 2.035001264395338 0 -1 0
376 1 8.45735640355398 17.396891063653346 2.741482017561543 0 0 0
336 2 6.4020771493576705 18.28040259101968 4.781202815477299 0 0 0
360 2 7.683196907773648 16.31745213538046 4.6822284039817506 0 0 0
359 2 9.827800599225656 18.201339525010223 4.547475450673607 0 0 0
378 2 9.109292446627226 16.693423844651218 3.316082587666138 0 0 0
370 1 9.992049449841929 15.858357662082557 4.133488801572397 0 0 0
341 2 11.047451468407992 16.71590968490211 1.828957393264725 0 0 0
352 1 11.616494538200483 17.423430523787637 2.5095342306140735 0 0 0
354 2 11.110708769478707 17.981994745462035 3.195924173219953 0 0 0
371 2 10.600546940742994 16.587801189940613 4.5296584691175426 0 0 0
372 2 10.660457340267394 15.263293164673957 3.573481117689519 0 0 0
129 2 13.413047252160935 18.56354133044737 3.501909196498316 0 -1 0
353 2 12.395320296801616 16.559365840407445 3.313650765415392 0 0 0
394 1 13.093661869204047 16.028974536800888 3.87040872010932 0 0 0
395 2 13.230941244652502 16.67884236546852 4.69804728198452 0 0 0
396 2 12.105571211912652 14.961819439037848 5.128543898668997 0 0 0
413 2 12.004352568994001 15.051827000708288 2.2635738526732094 0 0 0
426 2 14.052033162839264 16.95588690069863 1.845550516114964 0 0 0
384 2 12.358778384410188 18.403988120041006 4.660063355327843 0 0 0
99 2 12.419682510944915 18.2932072121582 1.5815644919070042 0 -1 0
398 2 13.76882452449719 14.988864553990087 3.1280263349338493 0 0 0
97 1 12.945718913429843 1.2982389847149507 18.876877888696114 0 0 -1
424 1 14.498207055456879 17.566549604675245 2.6055042891360403 0 0 0
103 1 15.98844509299071 18.722946453250643 4.23679470368391 0 -1 0
421 1 17.11701436006507 14.646154724742884 2.617393138265176 0 0 0
123 2 15.226575025691474 18.251965279813067 1.6640341331952089 0 -1 0
399 2 15.254762931399425 15.465033771535122 1.58917568966143 0 0 0
423 2 17.878593977619353 15.112556518228713 2.1990508290794524 0 0 0
425 2 14.869625679887653 17.057592672335062 3.376394280095362 0 0 0
299 2 18.042903250973573 14.99344959551831 5.038336607982787 -1 0 0
300 2 18.39875601076759 16.764129808453156 3.66901886735392 -1 0 0
390 2 16.654525435324217 17.104131776326746 2.1062510477184917 0 0 0
400 1 17.475629307449886 17.37612430085171 2.627262143310548 0 0 0
401 2 16.599423556070697 18.31231793236111 3.6914851659039587 0 0 0
402 2 17.981374112386693 17.828096008714194 1.9850732815634058 0 0 0
418 1 15.943822351736635 16.170059366780514 4.087782049824196 0 0 0
419 2 16.851982664368855 16.907541139338427 5.136750103102056 0 0 0
420 2 16.6214742120916 15.474548898529903 3.576162642869124 0 0 0
408 2 15.123987829980456 17.844566112344122 5.354193462051743 0 0 0
431 2 18.215277378556245 18.242287636822812 4.721136544476744 0 0 0
429 2 15.243039008417881 15.53933087045947 4.4786054610576755 0 0 0
406 1 14.533844203702603 17.20112933874904 5.754348639216217 0 0 0
430 1 17.504954871230332 17.493397169172297 5.686803250257049 0 0 0
388 1 15.813203682015882 16.152651012502346 18.807254827117465 0 0 -1
43 1 2.569191069056801 2.473390897493312 5.838285826567 0 0 0
462 2 2.0105087704775735 3.0737416597806053 6.401298878541091 0 0 0
45 2 3.3893598970201317 1.694494654898464 6.656772622018136 0 0 0
435 2 1.8581721229590347 1.944549630247335 8.304652143142182 0 0 0
436 1 4.087949146958007 4.175023478319365 7.155054129303824 0 0 0
437 2 4.990656321046619 3.252904046980173 6.158769838255511 0 0 0
438 2 3.6460193899506512 4.6485504183157005 6.401384812657066 0 0 0
447 2 3.463026051946545 3.6706371194355114 7.715856617009018 0 0 0
458 2 5.108642717838471 2.280378336558254 7.849733081669752 0 0 0
449 2 5.071314204567097 5.068049243344822 7.916193024633575 0 0 0
444 2 2.0133705315086927 3.2754179630082993 9.386447436826163 0 0 0
445 1 2.5555007914040555 2.502829285665884 8.830293620881758 0 0 0
446 2 3.4866262560592385 1.8534561229529531 9.003568095707367 0 0 0
468 2 3.2946397581450517 5.2578515091622275 9.069829169525622 0 0 0
471 2 4.662592615898689 3.269902968319391 9.544785083138759 0 0 0
474 2 1.88247217489346 5.255134200513389 8.201161403823537 0 0 0
469 1 5.7055797677526705 2.704200254534796 8.479898057784366 0 0 0
448 1 5.515028821263811 5.592792374966866 8.637484770685763 0 0 0
439 1 4.372979645190789 1.2954023371838659 9.810616011549113 0 0 0
91 1 8.42139736047662 2.734486199583089 5.4704532074232 0 0 0
93 2 7.755094561613474 2.976160766139717 6.097069075074167 0 0 0
470 2 6.56599136855952 3.693604250692691 7.697687524544032 0 0 0
483 2 6.157028332550374 1.3632346903629693 6.5524972242298825 0 0 0
508 1 7.046649586125925 4.334999832955948 7.145943519423233 0 0 0
509 2 6.460953610164257 4.952527556770589 6.600002490613845 0 0 0
510 2 8.017290201084668 4.954419921141266 8.192968820740106 0 0 0
92 2 8.87547140103296 2.054853908219874 5.978366589543397 0 0 0
485 2 9.064917435881103 5.164501122789417 5.72654807819067 0 0 0
495 2 9.522276440207543 3.7128055681944185 7.38036079286968 0 0 0
491 2 6.215466370342545 4.926741258141073 8.98737933269827 0 0 0
492 2 8.230434776222356 3.0861337943787825 9.10227598756575 0 0 0
512 2 6.253816644206788 2.0561704020003497 9.22918537353852 0 0 0
488 2 9.059928997843947 2.002684048288532 8.89314147327331 0 0 0
493 1 8.396191897556573 2.515121186871215 8.359120230577371 0 0 0
516 2 9.50548455319041 4.886886572218802 9.564756662822319 0 0 0
494 2 7.405905978549184 1.554036813846571 7.551768126629682 0 0 0
505 1 10.00794870780332 18.83533191739716 6.951371914041173 0 -1 0
46 1 5.724932934227738 5.805652446469472 5.546641819852217 0 0 0
481 1 7.010918237079131 18.672397536704043 6.8891865748817835 0 -1 0
118 1 14.553133362640663 5.709784006948766 5.668344189795557 0 0 0
67 1 11.690963992650653 2.6711283105661456 5.585363650931376 0 0 0
94 1 11.680011849580271 5.6271462695270715 5.716696286027108 0 0 0
484 1 10.186482867312963 4.343912657859297 6.992698514635522 0 0 0
68 2 11.109273463517644 3.209924211792868 6.090189255923597 0 0 0
486 2 10.632772587962622 4.832951662859669 7.7202149068360715 0 0 0
518 2 10.525685274651815 1.731168833445837 7.64687923670104 0 0 0
69 2 12.201243895881898 1.7953058348030804 6.576755087860493 0 0 0
542 2 13.514259274268678 1.590163287171287 7.540894792986269 0 0 0
556 1 13.060562470536015 4.159971584526831 7.027223754543481 0 0 0
557 2 11.84553153185644 3.193666282454709 8.091110476190984 0 0 0
558 2 13.72240383858774 3.2007042788481415 6.265540947723725 0 0 0
95 2 12.4146137002291 4.8236577415414565 6.613077942778285 0 0 0
570 2 13.522746258496658 4.405367623779778 7.790307484496836 0 0 0
517 1 11.44853124200453 2.641838224401373 8.69997778467488 0 0 0
519 2 11.06966996291852 3.3879387169465316 9.206342233523996 0 0 0
543 2 13.412657928886839 3.447955639798162 9.668406611686605 0 0 0
560 2 12.279587454115974 1.860029949219856 9.54682619580046 0 0 0
497 2 11.999058885280784 5.332095576226966 9.073469891727264 0 0 0
541 1 14.345424391563343 2.7526367477605462 8.495919024781951 0 0 0
115 1 17.499720814133802 2.811217794522669 5.6121101511266325 0 0 0
460 1 1.379795861225333 4.0294734706116255 7.111297871798674 0 0 0
139 1 14.396537880197021 2.6327201840455516 5.70945793264099 0 0 0
116 2 16.397101891001185 3.5370128819202438 6.339041200570421 0 0 0
117 2 18.15887322865804 2.1490956947554505 5.955842422837029 0 0 0
461 2 18.7403335300163 4.799999796019264 6.485296111313172 -1 0 0
532 1 15.903247625097771 4.197924014849413 6.9965252890959775 0 0 0
533 2 14.916722896778603 3.3674122217439124 7.953203756621058 0 0 0
534 2 17.11904266077309 5.109770755301621 7.951058774229317 0 0 0
554 2 15.452439199722484 1.7117963356834172 6.676488265554611 0 0 0
566 2 17.063243646631793 2.308232727710216 7.904970858126542 0 0 0
567 2 18.38987398307332 3.585112561796821 7.669476423692369 0 0 0
119 2 15.259212303249724 4.721364832565807 6.417036056637302 0 0 0
465 2 17.874778368228856 2.485981833801117 9.186602472181011 -1 0 0
536 2 15.018959976517113 2.110463977515182 8.859597252822452 0 0 0
564 2 16.221071685566848 3.3627751455482855 9.59842975198879 0 0 0
565 1 17.315967273062054 3.005054588064054 8.560810024526567 0 0 0
569 2 15.48459638836889 4.807391932363085 9.354981459727119 0 0 0
546 2 18.291696441483744 4.615064021181034 9.587803948613915 0 0 0
433 1 18.752929055568142 1.2528131075407014 7.193430578349873 -1 0 0
568 1 14.481652527202538 5.721995261797749 8.42222244300397 0 0 0
22 1 2.906489171171713 5.651094384028079 5.619282964600383 0 0 0
472 1 2.7367868985588526 5.797371065713346 8.467597646806492 0 0 0
23 2 2.3094922461227827 6.325638470264014 6.151358047841884 0 0 0
188 2 3.153737998200417 7.902624657991739 6.050888309441298 0 0 0
579 2 1.6970496863708315 7.845752953275691 7.55522189603311 0 0 0
601 1 4.096590382286433 7.214571908223335 7.015578600395698 0 0 0
602 2 3.579783891810016 6.441881022468534 7.277242630024738 0 0 0
603 2 5.27458876662015 8.180250256895999 8.055696144289303 0 0 0
47 2 4.942918463863753 6.571443860048126 6.559486075754439 0 0 0
165 2 4.637950897163144 9.266267363150883 6.48221345818246 0 0 0
473 2 1.8017105314719766 6.760805071850692 9.444443383599715 0 0 0
584 2 4.547557382335812 6.495597663294198 9.612748913763578 0 0 0
590 2 3.3233623342391843 7.881719144360546 9.097456203430319 0 0 0
589 1 2.5961883445232 8.350002889366753 8.530991004021782 0 0 0
591 2 1.8863206815635816 9.550053454869639 9.378918899380215 0 0 0
582 2 3.140022063751089 8.800454952840212 7.838493153222896 0 0 0
611 2 4.752572692847012 9.40206703919295 9.317758666920723 0 0 0
189 2 2.2146144246054 8.945540241869308 6.338373418447651 0 0 0
613 1 5.865727265140564 8.719083417904034 8.541017684779284 0 0 0
577 1 1.310491068252052 7.150224490055104 6.810749501690742 0 0 0
610 1 4.109461119887955 10.081908236480384 9.621828200165593 0 0 0
520 1 8.531005989469982 5.6921479504251415 8.603528062643932 0 0 0
70 1 8.41280747475971 5.774739495983693 5.393015961899307 0 0 0
615 2 6.4082925564139055 9.290424845904951 7.822419863083043 0 0 0
626 2 7.84002947037123 6.690507771296291 6.489531799122634 0 0 0
450 2 6.630338687676484 6.538295577234086 7.491452295172767 0 0 0
625 1 7.178451554939563 7.169716595075316 7.039732948181822 0 0 0
627 2 6.290982793177293 8.319942757655067 6.077446571977316 0 0 0
638 2 8.170216258695742 8.181968584853546 8.069141511821766 0 0 0
236 2 9.023158145169038 7.907468807629642 6.221683594835604 0 0 0
237 2 7.777783678765727 9.933302377028761 6.697412713357528 0 0 0
630 2 9.41638048341233 9.15896032697566 7.884240674778022 0 0 0
522 2 7.6077078028959315 6.461651991239193 9.212205383681985 0 0 0
614 2 6.626950779805475 7.618605516334865 9.282667867741015 0 0 0
632 2 9.614465610466716 7.608587552896777 9.441845499464838 0 0 0
639 2 7.70356601944864 9.541194132949485 9.482008116080836 0 0 0
637 1 8.83863753071487 8.680930517310458 8.542393283020274 0 0 0
521 2 9.019908524063137 6.220265096948616 7.924524324352488 0 0 0
652 1 7.040494740968581 10.243709449434233 7.141671123082444 0 0 0
649 1 9.898177752993254 7.011554889259385 7.003511762449002 0 0 0
496 1 11.465665968558865 5.745232297992783 8.402537562585024 0 0 0
628 1 10.239361944383129 9.913200488355747 6.893171191841048 0 0 0
650 2 10.48287866568118 7.770993768400193 7.506189582615068 0 0 0
651 2 10.416988406168501 6.294208035433884 6.488047437510653 0 0 0
213 2 12.103046786988262 7.862018182432266 6.2375608255244295 0 0 0
498 2 12.427565714474598 6.591310702092398 7.595867372436694 0 0 0
673 1 13.012544357393027 7.097686604438834 7.059915029462146 0 0 0