-2.374457316463365775e+00 -1.316577693340341026e+00 2.877959857585516215e-02 -1.316577693340341026e+00 -3.748350788099538367e+00 4.100671495193416310e-02 2.877959857585516215e-02 4.100671495193416310e-02 -2.725692000969476059e+00
