
     Program PWSCF v.5.4.0 starts on 22Sep2019 at 19: 4:10 

     This program is part of the open-source Quantum ESPRESSO suite
     for quantum simulation of materials; please cite
         "P. Giannozzi et al., J. Phys.:Condens. Matter 21 395502 (2009);
          URL http://www.quantum-espresso.org", 
     in publications or presentations arising from this work. More details at
     http://www.quantum-espresso.org/quote

           HOST :    @host@
           ARCH :    
             CC :    cc
            CPP :    cpp
            F90 :    mpif90
            F77 :    gfortran
         DFLAGS :    -D__GFORTRAN -D__STD_F95 -D__FFTW3 -D__MPI -D__PARA
      BLAS LIBS :    -lopenblas
    LAPACK LIBS :    -lopenblas
       FFT LIBS :    -lfftw3
      MASS LIBS :    

     Parallel version (MPI), running on    28 processors
     R & G space division:  proc/nbgrp/npool/nimage =      28
     Waiting for input...
     Reading input from standard input
Warning: card &IONS ignored
Warning: card / ignored
Warning: card &CELL ignored
Warning: card / ignored

     Current dimensions of program PWSCF are:
     Max number of different atomic species (ntypx) = 10
     Max number of k-points (npk) =  40000
     Max angular momentum in pseudopotentials (lmaxx) =  3

     IMPORTANT: XC functional enforced from input :
     Exchange-correlation      = PBE ( 1  4  3  4 0 0)
     Any further DFT definition will be discarded
     Please, verify this is what you really want


     gamma-point specific algorithms are used

     Subspace diagonalization in iterative solution of the eigenvalue problem:
     a serial algorithm will be used


     Parallelization info
     --------------------
     sticks:   dense  smooth     PW     G-vecs:    dense   smooth      PW
     Min         445     445    110                37558    37558    4694
     Max         448     448    112                37564    37564    4708
     Sum       12517   12517   3125              1051747  1051747  131683
     Tot        6259    6259   1563



     bravais-lattice index     =            1
     lattice parameter (alat)  =      18.8973  a.u.
     unit-cell volume          =    6748.3346 (a.u.)^3
     number of atoms/cell      =            5
     number of atomic types    =            2
     number of electrons       =         8.00
     number of Kohn-Sham states=            4
     kinetic-energy cutoff     =     110.0000  Ry
     charge density cutoff     =     440.0000  Ry
     convergence threshold     =      1.0E-06
     mixing beta               =       0.5000
     number of iterations used =            8  plain     mixing
     Exchange-correlation      = PBE ( 1  4  3  4 0 0)

     celldm(1)=  18.897261  celldm(2)=   0.000000  celldm(3)=   0.000000
     celldm(4)=   0.000000  celldm(5)=   0.000000  celldm(6)=   0.000000

     crystal axes: (cart. coord. in units of alat)
               a(1) = (   1.000000   0.000000   0.000000 )  
               a(2) = (   0.000000   1.000000   0.000000 )  
               a(3) = (   0.000000   0.000000   1.000000 )  

     reciprocal axes: (cart. coord. in units 2 pi/alat)
               b(1) = (  1.000000  0.000000  0.000000 )  
               b(2) = (  0.000000  1.000000  0.000000 )  
               b(3) = (  0.000000  0.000000  1.000000 )  


     PseudoPot. # 1 for  H read from file:
     ../pseudo/H.tm.pbe.UPF
     MD5 check sum: 4b614d66af87240b7a5107bfa527a767
     Pseudo is Norm-conserving, Zval =  1.0
     Generated using "atomic" code by A. Dal Corso  v.5.2.0
     Using radial grid of  929 points,  0 beta functions with: 

     PseudoPot. # 2 for  C read from file:
     ../pseudo/C.tm.pbe.UPF
     MD5 check sum: a4f27fcb9b24331b00ace8e732a7e062
     Pseudo is Norm-conserving, Zval =  4.0
     Generated using "atomic" code by A. Dal Corso  v.5.2.0
     Using radial grid of 1073 points,  1 beta functions with: 
                l(1) =   1

     atomic species   valence    mass     pseudopotential
        H              1.00     1.00000      H( 1.00)
        C              4.00     1.00000      C( 1.00)

     No symmetry found



   Cartesian axes

     site n.     atom                  positions (alat units)
         1           H   tau(   1) = (   0.5094090   0.4016090   0.3713340  )
         2           H   tau(   2) = (   0.3803000   0.4885340   0.4521120  )
         3           H   tau(   3) = (   0.5401120   0.5621460   0.4423460  )
         4           H   tau(   4) = (   0.5213710   0.4186230   0.5496560  )
         5           C   tau(   5) = (   0.4893150   0.4668550   0.4541720  )

     number of k points=     1
                       cart. coord. in units 2pi/alat
        k(    1) = (   0.0000000   0.0000000   0.0000000), wk =   2.0000000

     Dense  grid:   525874 G-vectors     FFT dimensions: ( 128, 128, 128)

     Largest allocated arrays     est. size (Mb)     dimensions
        Kohn-Sham Wavefunctions         0.14 Mb     (    2354,    4)
        NL pseudopotentials             0.11 Mb     (    2354,    3)
        Each V/rho on FFT grid          1.25 Mb     (   81920)
        Each G-vector array             0.14 Mb     (   18782)
        G-vector shells                 0.02 Mb     (    2785)
     Largest temporary arrays     est. size (Mb)     dimensions
        Auxiliary wavefunctions         0.29 Mb     (    2354,   16)
        Each subspace H/S matrix        0.00 Mb     (      16,   16)
        Each <psi_i|beta_j> matrix      0.00 Mb     (       3,    4)
        Arrays for rho mixing          10.00 Mb     (   81920,    8)

     Initial potential from superposition of free atoms
     Check: negative starting charge=   -0.000384

     starting charge    7.99992, renormalised to    8.00000

     negative rho (up, down):  3.836E-04 0.000E+00
     Starting wfc are    8 randomized atomic wfcs

     total cpu time spent up to now is        9.6 secs

     per-process dynamical memory:   430.8 Mb

     Self-consistent Calculation

     iteration #  1     ecut=   110.00 Ry     beta=0.50
     Davidson diagonalization with overlap
     ethr =  1.00E-02,  avg # of iterations =  2.0

     negative rho (up, down):  1.811E-04 0.000E+00

     total cpu time spent up to now is       10.1 secs

     total energy              =     -16.01911449 Ry
     Harris-Foulkes estimate   =     -16.40886952 Ry
     estimated scf accuracy    <       0.69251182 Ry

     iteration #  2     ecut=   110.00 Ry     beta=0.50
     Davidson diagonalization with overlap
     ethr =  8.66E-03,  avg # of iterations =  2.0

     negative rho (up, down):  9.487E-05 0.000E+00

     total cpu time spent up to now is       10.6 secs

     total energy              =     -16.15212289 Ry
     Harris-Foulkes estimate   =     -16.17132340 Ry
     estimated scf accuracy    <       0.05000719 Ry

     iteration #  3     ecut=   110.00 Ry     beta=0.50
     Davidson diagonalization with overlap
     ethr =  6.25E-04,  avg # of iterations =  1.0

     negative rho (up, down):  5.064E-06 0.000E+00

     total cpu time spent up to now is       11.1 secs

     total energy              =     -16.15038240 Ry
     Harris-Foulkes estimate   =     -16.15584722 Ry
     estimated scf accuracy    <       0.01148114 Ry

     iteration #  4     ecut=   110.00 Ry     beta=0.50
     Davidson diagonalization with overlap
     ethr =  1.44E-04,  avg # of iterations =  2.0

     negative rho (up, down):  5.021E-06 0.000E+00

     total cpu time spent up to now is       11.5 secs

     total energy              =     -16.15230607 Ry
     Harris-Foulkes estimate   =     -16.15452068 Ry
     estimated scf accuracy    <       0.00511229 Ry

     iteration #  5     ecut=   110.00 Ry     beta=0.50
     Davidson diagonalization with overlap
     ethr =  6.39E-05,  avg # of iterations =  1.0

     negative rho (up, down):  1.526E-06 0.000E+00

     total cpu time spent up to now is       12.0 secs

     total energy              =     -16.15251498 Ry
     Harris-Foulkes estimate   =     -16.15273761 Ry
     estimated scf accuracy    <       0.00039049 Ry

     iteration #  6     ecut=   110.00 Ry     beta=0.50
     Davidson diagonalization with overlap
     ethr =  4.88E-06,  avg # of iterations =  3.0

     negative rho (up, down):  1.006E-08 0.000E+00

     total cpu time spent up to now is       12.5 secs

     total energy              =     -16.15275041 Ry
     Harris-Foulkes estimate   =     -16.15281318 Ry
     estimated scf accuracy    <       0.00014821 Ry

     iteration #  7     ecut=   110.00 Ry     beta=0.50
     Davidson diagonalization with overlap
     ethr =  1.85E-06,  avg # of iterations =  2.0

     total cpu time spent up to now is       12.9 secs

     total energy              =     -16.15276720 Ry
     Harris-Foulkes estimate   =     -16.15276967 Ry
     estimated scf accuracy    <       0.00000563 Ry

     iteration #  8     ecut=   110.00 Ry     beta=0.50
     Davidson diagonalization with overlap
     ethr =  7.04E-08,  avg # of iterations =  2.0

     total cpu time spent up to now is       13.3 secs

     End of self-consistent calculation

          k = 0.0000 0.0000 0.0000 ( 65842 PWs)   bands (ev):

   -16.8266  -9.4081  -9.3102  -9.0158

     highest occupied level (ev):    -9.0158

!    total energy              =     -16.15276846 Ry
     Harris-Foulkes estimate   =     -16.15276862 Ry
     estimated scf accuracy    <       0.00000044 Ry

     The total energy is the sum of the following terms:

     one-electron contribution =     -40.20201839 Ry
     hartree contribution      =      20.92698035 Ry
     xc contribution           =      -6.34029605 Ry
     ewald contribution        =       9.46256563 Ry

     convergence has been achieved in   8 iterations

     Forces acting on atoms (Ry/au):

     atom    1 type  1   force =     0.01340891   -0.01722692   -0.02270486
     atom    2 type  1   force =     0.01506071   -0.00797757    0.01186019
     atom    3 type  1   force =     0.01253197    0.00793210   -0.00310952
     atom    4 type  1   force =    -0.01339670    0.01140446   -0.02066735
     atom    5 type  2   force =    -0.02760488    0.00586792    0.03462155

     Total force =     0.066217     Total SCF correction =     0.000180


     entering subroutine stress ...

          total   stress  (Ry/bohr**3)                   (kbar)     P=   -0.29
  -0.00000513   0.00000362  -0.00000719         -0.75      0.53     -1.06
   0.00000362   0.00000138   0.00000683          0.53      0.20      1.00
  -0.00000719   0.00000683  -0.00000209         -1.06      1.00     -0.31


     init_run     :      2.43s CPU      2.45s WALL (       1 calls)
     electrons    :      3.71s CPU      3.75s WALL (       1 calls)
     forces       :      0.89s CPU      0.89s WALL (       1 calls)
     stress       :      1.10s CPU      1.10s WALL (       1 calls)

     Called by init_run:
     wfcinit      :      0.10s CPU      0.10s WALL (       1 calls)
     potinit      :      0.93s CPU      0.94s WALL (       1 calls)

     Called by electrons:
     c_bands      :      1.49s CPU      1.50s WALL (       8 calls)
     sum_band     :      0.45s CPU      0.45s WALL (       8 calls)
     v_of_rho     :      1.74s CPU      1.78s WALL (       9 calls)
     mix_rho      :      0.20s CPU      0.21s WALL (       8 calls)

     Called by c_bands:
     init_us_2    :      0.04s CPU      0.04s WALL (      17 calls)
     regterg      :      1.46s CPU      1.46s WALL (       8 calls)

     Called by sum_band:

     Called by *egterg:
     h_psi        :      1.50s CPU      1.51s WALL (      24 calls)
     g_psi        :      0.01s CPU      0.01s WALL (      15 calls)
     rdiaghg      :      0.00s CPU      0.00s WALL (      23 calls)

     Called by h_psi:
     add_vuspsi   :      0.00s CPU      0.00s WALL (      24 calls)

     General routines
     calbec       :      0.38s CPU      0.38s WALL (      29 calls)
     fft          :      1.66s CPU      1.71s WALL (     106 calls)
     fftw         :      1.14s CPU      1.15s WALL (     116 calls)

     Parallel routines
     fft_scatter  :      1.12s CPU      1.15s WALL (     222 calls)

     PWSCF        :    15.26s CPU        15.35s WALL


   This run was terminated on:  19: 4:25  22Sep2019            

=------------------------------------------------------------------------------=
   JOB DONE.
=------------------------------------------------------------------------------=
