   6   6   0   0
  0.5000000E+03  0.3000000E-08  0.1000000E-08  0.1000000E-08  0.5000000E-15
  1.000000000000000E-004
  CAR 
 unknown system                          
      1.58715974    -26.11577577  301     -6.61983491      1.00000000
    -26.116  0.0000E+00  0.0000E+00
    -26.023  0.0000E+00  0.0000E+00
    -25.931  0.0000E+00  0.0000E+00
    -25.839  0.0000E+00  0.0000E+00
    -25.746  0.0000E+00  0.0000E+00
    -25.654  0.0000E+00  0.0000E+00
    -25.562  0.0000E+00  0.0000E+00
    -25.469  0.0000E+00  0.0000E+00
    -25.377  0.0000E+00  0.0000E+00
    -25.285  0.0000E+00  0.0000E+00
    -25.192  0.0000E+00  0.0000E+00
    -25.100  0.6223E-10  0.5746E-11
    -25.008  0.2080E-03  0.1920E-04
    -24.915  0.1045E+01  0.9649E-01
    -24.823  0.1691E+02  0.1658E+01
    -24.731  0.3702E+01  0.2000E+01
    -24.638  0.4074E+00  0.2037E+01
    -24.546  0.1479E+02  0.3403E+01
    -24.454  0.6445E+01  0.3998E+01
    -24.361  0.1825E-01  0.4000E+01
    -24.269  0.9516E-07  0.4000E+01
    -24.177  0.0000E+00  0.4000E+01
    -24.084  0.0000E+00  0.4000E+01
    -23.992  0.0000E+00  0.4000E+01
    -23.900  0.0000E+00  0.4000E+01
    -23.807  0.0000E+00  0.4000E+01
    -23.715  0.0000E+00  0.4000E+01
    -23.623  0.0000E+00  0.4000E+01
    -23.530  0.0000E+00  0.4000E+01
    -23.438  0.0000E+00  0.4000E+01
    -23.345  0.0000E+00  0.4000E+01
    -23.253  0.0000E+00  0.4000E+01
    -23.161  0.0000E+00  0.4000E+01
    -23.068  0.0000E+00  0.4000E+01
    -22.976  0.0000E+00  0.4000E+01
    -22.884  0.0000E+00  0.4000E+01
    -22.791  0.0000E+00  0.4000E+01
    -22.699  0.0000E+00  0.4000E+01
    -22.607  0.0000E+00  0.4000E+01
    -22.514  0.0000E+00  0.4000E+01
    -22.422  0.0000E+00  0.4000E+01
    -22.330  0.0000E+00  0.4000E+01
    -22.237  0.0000E+00  0.4000E+01
    -22.145  0.0000E+00  0.4000E+01
    -22.053  0.0000E+00  0.4000E+01
    -21.960  0.0000E+00  0.4000E+01
    -21.868  0.0000E+00  0.4000E+01
    -21.776  0.0000E+00  0.4000E+01
    -21.683  0.0000E+00  0.4000E+01
    -21.591  0.0000E+00  0.4000E+01
    -21.499  0.0000E+00  0.4000E+01
    -21.406  0.0000E+00  0.4000E+01
    -21.314  0.0000E+00  0.4000E+01
    -21.222  0.0000E+00  0.4000E+01
    -21.129  0.0000E+00  0.4000E+01
    -21.037  0.0000E+00  0.4000E+01
    -20.945  0.0000E+00  0.4000E+01
    -20.852  0.0000E+00  0.4000E+01
    -20.760  0.0000E+00  0.4000E+01
    -20.668  0.0000E+00  0.4000E+01
    -20.575  0.0000E+00  0.4000E+01
    -20.483  0.0000E+00  0.4000E+01
    -20.391  0.0000E+00  0.4000E+01
    -20.298  0.0000E+00  0.4000E+01
    -20.206  0.0000E+00  0.4000E+01
    -20.113  0.0000E+00  0.4000E+01
    -20.021  0.0000E+00  0.4000E+01
    -19.929  0.0000E+00  0.4000E+01
    -19.836  0.0000E+00  0.4000E+01
    -19.744  0.0000E+00  0.4000E+01
    -19.652  0.0000E+00  0.4000E+01
    -19.559  0.0000E+00  0.4000E+01
    -19.467  0.0000E+00  0.4000E+01
    -19.375  0.0000E+00  0.4000E+01
    -19.282  0.0000E+00  0.4000E+01
    -19.190  0.0000E+00  0.4000E+01
    -19.098  0.0000E+00  0.4000E+01
    -19.005  0.0000E+00  0.4000E+01
    -18.913  0.0000E+00  0.4000E+01
    -18.821  0.0000E+00  0.4000E+01
    -18.728  0.0000E+00  0.4000E+01
    -18.636  0.0000E+00  0.4000E+01
    -18.544  0.0000E+00  0.4000E+01
    -18.451  0.0000E+00  0.4000E+01
    -18.359  0.0000E+00  0.4000E+01
    -18.267  0.0000E+00  0.4000E+01
    -18.174  0.0000E+00  0.4000E+01
    -18.082  0.0000E+00  0.4000E+01
    -17.990  0.0000E+00  0.4000E+01
    -17.897  0.0000E+00  0.4000E+01
    -17.805  0.0000E+00  0.4000E+01
    -17.713  0.0000E+00  0.4000E+01
    -17.620  0.0000E+00  0.4000E+01
    -17.528  0.0000E+00  0.4000E+01
    -17.436  0.0000E+00  0.4000E+01
    -17.343  0.0000E+00  0.4000E+01
    -17.251  0.0000E+00  0.4000E+01
    -17.158  0.0000E+00  0.4000E+01
    -17.066  0.0000E+00  0.4000E+01
    -16.974  0.0000E+00  0.4000E+01
    -16.881  0.0000E+00  0.4000E+01
    -16.789  0.0000E+00  0.4000E+01
    -16.697  0.0000E+00  0.4000E+01
    -16.604  0.0000E+00  0.4000E+01
    -16.512  0.0000E+00  0.4000E+01
    -16.420  0.0000E+00  0.4000E+01
    -16.327  0.0000E+00  0.4000E+01
    -16.235  0.0000E+00  0.4000E+01
    -16.143  0.0000E+00  0.4000E+01
    -16.050  0.0000E+00  0.4000E+01
    -15.958  0.0000E+00  0.4000E+01
    -15.866  0.0000E+00  0.4000E+01
    -15.773  0.0000E+00  0.4000E+01
    -15.681  0.0000E+00  0.4000E+01
    -15.589  0.0000E+00  0.4000E+01
    -15.496  0.0000E+00  0.4000E+01
    -15.404  0.0000E+00  0.4000E+01
    -15.312  0.0000E+00  0.4000E+01
    -15.219  0.0000E+00  0.4000E+01
    -15.127  0.0000E+00  0.4000E+01
    -15.035  0.0000E+00  0.4000E+01
    -14.942  0.0000E+00  0.4000E+01
    -14.850  0.0000E+00  0.4000E+01
    -14.758  0.0000E+00  0.4000E+01
    -14.665  0.0000E+00  0.4000E+01
    -14.573  0.0000E+00  0.4000E+01
    -14.481  0.0000E+00  0.4000E+01
    -14.388  0.0000E+00  0.4000E+01
    -14.296  0.0000E+00  0.4000E+01
    -14.204  0.0000E+00  0.4000E+01
    -14.111  0.0000E+00  0.4000E+01
    -14.019  0.0000E+00  0.4000E+01
    -13.926  0.0000E+00  0.4000E+01
    -13.834  0.0000E+00  0.4000E+01
    -13.742  0.0000E+00  0.4000E+01
    -13.649  0.0000E+00  0.4000E+01
    -13.557  0.0000E+00  0.4000E+01
    -13.465  0.0000E+00  0.4000E+01
    -13.372  0.0000E+00  0.4000E+01
    -13.280  0.0000E+00  0.4000E+01
    -13.188  0.0000E+00  0.4000E+01
    -13.095  0.0000E+00  0.4000E+01
    -13.003  0.0000E+00  0.4000E+01
    -12.911  0.4377E-10  0.4000E+01
    -12.818  0.1660E-03  0.4000E+01
    -12.726  0.9408E+00  0.4087E+01
    -12.634  0.1673E+02  0.5632E+01
    -12.541  0.3982E+01  0.6000E+01
    -12.449  0.4418E-01  0.6004E+01
    -12.357  0.8266E+01  0.6767E+01
    -12.264  0.1313E+02  0.7979E+01
    -12.172  0.2229E+00  0.8000E+01
    -12.080  0.9028E-05  0.8000E+01
    -11.987  0.5122E-12  0.8000E+01
    -11.895  0.0000E+00  0.8000E+01
    -11.803  0.0000E+00  0.8000E+01
    -11.710  0.0000E+00  0.8000E+01
    -11.618  0.0000E+00  0.8000E+01
    -11.526  0.0000E+00  0.8000E+01
    -11.433  0.0000E+00  0.8000E+01
    -11.341  0.0000E+00  0.8000E+01
    -11.249  0.0000E+00  0.8000E+01
    -11.156  0.0000E+00  0.8000E+01
    -11.064  0.0000E+00  0.8000E+01
    -10.972  0.0000E+00  0.8000E+01
    -10.879  0.0000E+00  0.8000E+01
    -10.787  0.0000E+00  0.8000E+01
    -10.694  0.0000E+00  0.8000E+01
    -10.602  0.0000E+00  0.8000E+01
    -10.510  0.0000E+00  0.8000E+01
    -10.417  0.0000E+00  0.8000E+01
    -10.325  0.0000E+00  0.8000E+01
    -10.233  0.0000E+00  0.8000E+01
    -10.140  0.0000E+00  0.8000E+01
    -10.048  0.0000E+00  0.8000E+01
     -9.956  0.0000E+00  0.8000E+01
     -9.863  0.0000E+00  0.8000E+01
     -9.771  0.0000E+00  0.8000E+01
     -9.679  0.1467E-10  0.8000E+01
     -9.586  0.8206E-04  0.8000E+01
     -9.494  0.6734E+00  0.8062E+01
     -9.402  0.1606E+02  0.9545E+01
     -9.309  0.4920E+01  0.9999E+01
     -9.217  0.5897E-01  0.1000E+02
     -9.125  0.8913E+01  0.1083E+02
     -9.032  0.1251E+02  0.1198E+02
     -8.940  0.1803E+00  0.1200E+02
     -8.848  0.6014E-05  0.1200E+02
     -8.755  0.2789E-12  0.1200E+02
     -8.663  0.0000E+00  0.1200E+02
     -8.571  0.0000E+00  0.1200E+02
     -8.478  0.0000E+00  0.1200E+02
     -8.386  0.0000E+00  0.1200E+02
     -8.294  0.0000E+00  0.1200E+02
     -8.201  0.0000E+00  0.1200E+02
     -8.109  0.0000E+00  0.1200E+02
     -8.017  0.0000E+00  0.1200E+02
     -7.924  0.0000E+00  0.1200E+02
     -7.832  0.0000E+00  0.1200E+02
     -7.739  0.0000E+00  0.1200E+02
     -7.647  0.0000E+00  0.1200E+02
     -7.555  0.0000E+00  0.1200E+02
     -7.462  0.1456E-09  0.1200E+02
     -7.370  0.3570E-03  0.1200E+02
     -7.278  0.1338E+01  0.1212E+02
     -7.185  0.1725E+02  0.1372E+02
     -7.093  0.3071E+01  0.1400E+02
     -7.001  0.4912E-01  0.1400E+02
     -6.908  0.8703E+01  0.1481E+02
     -6.816  0.1272E+02  0.1598E+02
     -6.724  0.1932E+00  0.1600E+02
     -6.631  0.6860E-05  0.1600E+02
     -6.539  0.3390E-12  0.1600E+02
     -6.447  0.0000E+00  0.1600E+02
     -6.354  0.0000E+00  0.1600E+02
     -6.262  0.0000E+00  0.1600E+02
     -6.170  0.0000E+00  0.1600E+02
     -6.077  0.0000E+00  0.1600E+02
     -5.985  0.0000E+00  0.1600E+02
     -5.893  0.0000E+00  0.1600E+02
     -5.800  0.0000E+00  0.1600E+02
     -5.708  0.0000E+00  0.1600E+02
     -5.616  0.0000E+00  0.1600E+02
     -5.523  0.0000E+00  0.1600E+02
     -5.431  0.0000E+00  0.1600E+02
     -5.339  0.0000E+00  0.1600E+02
     -5.246  0.0000E+00  0.1600E+02
     -5.154  0.0000E+00  0.1600E+02
     -5.062  0.0000E+00  0.1600E+02
     -4.969  0.0000E+00  0.1600E+02
     -4.877  0.0000E+00  0.1600E+02
     -4.785  0.0000E+00  0.1600E+02
     -4.692  0.0000E+00  0.1600E+02
     -4.600  0.0000E+00  0.1600E+02
     -4.507  0.0000E+00  0.1600E+02
     -4.415  0.0000E+00  0.1600E+02
     -4.323  0.0000E+00  0.1600E+02
     -4.230  0.0000E+00  0.1600E+02
     -4.138  0.0000E+00  0.1600E+02
     -4.046  0.0000E+00  0.1600E+02
     -3.953  0.0000E+00  0.1600E+02
     -3.861  0.0000E+00  0.1600E+02
     -3.769  0.0000E+00  0.1600E+02
     -3.676  0.0000E+00  0.1600E+02
     -3.584  0.0000E+00  0.1600E+02
     -3.492  0.0000E+00  0.1600E+02
     -3.399  0.0000E+00  0.1600E+02
     -3.307  0.0000E+00  0.1600E+02
     -3.215  0.0000E+00  0.1600E+02
     -3.122  0.0000E+00  0.1600E+02
     -3.030  0.0000E+00  0.1600E+02
     -2.938  0.0000E+00  0.1600E+02
     -2.845  0.0000E+00  0.1600E+02
     -2.753  0.0000E+00  0.1600E+02
     -2.661  0.0000E+00  0.1600E+02
     -2.568  0.0000E+00  0.1600E+02
     -2.476  0.0000E+00  0.1600E+02
     -2.384  0.0000E+00  0.1600E+02
     -2.291  0.0000E+00  0.1600E+02
     -2.199  0.0000E+00  0.1600E+02
     -2.107  0.0000E+00  0.1600E+02
     -2.014  0.0000E+00  0.1600E+02
     -1.922  0.0000E+00  0.1600E+02
     -1.830  0.0000E+00  0.1600E+02
     -1.737  0.0000E+00  0.1600E+02
     -1.645  0.0000E+00  0.1600E+02
     -1.553  0.4689E-12  0.1600E+02
     -1.460  0.8508E-05  0.1600E+02
     -1.368  0.2162E+00  0.1602E+02
     -1.275  0.1304E+02  0.1722E+02
     -1.183  0.8360E+01  0.1800E+02
     -1.091  0.4084E-01  0.1800E+02
     -0.998  0.6194E-02  0.1800E+02
     -0.906  0.4380E+01  0.1840E+02
     -0.814  0.1646E+02  0.1992E+02
     -0.721  0.8144E+00  0.2000E+02
     -0.629  0.1222E-03  0.2000E+02
     -0.537  0.2716E-10  0.2000E+02
     -0.444  0.0000E+00  0.2000E+02
     -0.352  0.0000E+00  0.2000E+02
     -0.260  0.0000E+00  0.2000E+02
     -0.167  0.0000E+00  0.2000E+02
     -0.075  0.4018E-09  0.2000E+02
      0.017  0.6763E-03  0.2000E+02
      0.110  0.1776E+01  0.2016E+02
      0.202  0.1748E+02  0.2178E+02
      0.294  0.6643E+01  0.2239E+02
      0.387  0.1654E+02  0.2392E+02
      0.479  0.8770E+00  0.2400E+02
      0.571  0.1497E-03  0.2400E+02
      0.664  0.3978E-10  0.2400E+02
      0.756  0.0000E+00  0.2400E+02
      0.848  0.0000E+00  0.2400E+02
      0.941  0.0000E+00  0.2400E+02
      1.033  0.0000E+00  0.2400E+02
      1.125  0.0000E+00  0.2400E+02
      1.218  0.0000E+00  0.2400E+02
      1.310  0.0000E+00  0.2400E+02
      1.402  0.0000E+00  0.2400E+02
      1.495  0.0000E+00  0.2400E+02
      1.587  0.0000E+00  0.2400E+02
