       N       E                     dE             d eps       ncg     rms          rms(c)
DAV:   1     0.151940753018E+03    0.15194E+03   -0.47322E+03    64   0.142E+03
DAV:   2     0.552018828353E+02   -0.96739E+02   -0.95847E+02    92   0.135E+02
DAV:   3    -0.212210285444E+02   -0.76423E+02   -0.74662E+02    96   0.129E+02
DAV:   4    -0.316494571088E+02   -0.10428E+02   -0.10388E+02    60   0.635E+01
DAV:   5    -0.319814843285E+02   -0.33203E+00   -0.33172E+00    64   0.147E+01    0.181E+01
RMM:   6    -0.286114095891E+02    0.33701E+01   -0.12215E+01    64   0.249E+01    0.178E+01
RMM:   7    -0.285568206810E+02    0.54589E-01   -0.12422E+00    76   0.543E+00    0.157E+01
RMM:   8    -0.294820384173E+02   -0.92522E+00   -0.71883E+00    64   0.225E+01    0.119E+01
RMM:   9    -0.283247820006E+02    0.11573E+01   -0.27991E+00    64   0.122E+01    0.401E+00
RMM:  10    -0.283380159761E+02   -0.13234E-01   -0.19629E-01    76   0.251E+00    0.190E+00
RMM:  11    -0.283363455460E+02    0.16704E-02   -0.12947E-02    64   0.578E-01    0.860E-01
RMM:  12    -0.283339570735E+02    0.23885E-02   -0.77623E-02    64   0.167E+00    0.566E-01
RMM:  13    -0.283367726242E+02   -0.28156E-02   -0.54155E-03    72   0.370E-01    0.582E-01
RMM:  14    -0.283442499062E+02   -0.74773E-02   -0.49855E-03    64   0.364E-01    0.572E-01
RMM:  15    -0.283450491863E+02   -0.79928E-03   -0.28019E-03    66   0.399E-01    0.206E-01
RMM:  16    -0.283466857096E+02   -0.16365E-02   -0.74466E-03    64   0.574E-01    0.173E-01
RMM:  17    -0.283495874705E+02   -0.29018E-02   -0.73711E-03    68   0.530E-01    0.466E-01
RMM:  18    -0.283489863775E+02    0.60109E-03   -0.39146E-04    66   0.154E-01    0.392E-01
RMM:  19    -0.283483886099E+02    0.59777E-03   -0.24591E-03    62   0.322E-01    0.168E-01
RMM:  20    -0.283483286266E+02    0.59983E-04   -0.24211E-03    66   0.301E-01    0.787E-02
RMM:  21    -0.283489496653E+02   -0.62104E-03   -0.37113E-03    60   0.383E-01    0.366E-01
RMM:  22    -0.283485932489E+02    0.35642E-03   -0.27875E-04    66   0.863E-02    0.358E-01
RMM:  23    -0.283476373412E+02    0.95591E-03   -0.25695E-03    60   0.332E-01    0.102E-01
RMM:  24    -0.283478884724E+02   -0.25113E-03   -0.18004E-04    74   0.683E-02    0.466E-02
RMM:  25    -0.283483996769E+02   -0.51120E-03   -0.10237E-03    56   0.204E-01    0.129E-01
RMM:  26    -0.283485642240E+02   -0.16455E-03   -0.24084E-04    72   0.750E-02    0.142E-01
RMM:  27    -0.283486918468E+02   -0.12762E-03   -0.15718E-04    52   0.786E-02    0.855E-02
RMM:  28    -0.283488802586E+02   -0.18841E-03   -0.36620E-04    56   0.118E-01    0.233E-02
RMM:  29    -0.283490231630E+02   -0.14290E-03   -0.16431E-04    72   0.692E-02    0.638E-02
RMM:  30    -0.283492664684E+02   -0.24331E-03   -0.54581E-05    54   0.485E-02    0.330E-02
RMM:  31    -0.283494818396E+02   -0.21537E-03   -0.44216E-05    70   0.366E-02    0.548E-03
RMM:  32    -0.283495639055E+02   -0.82066E-04   -0.81383E-06    64   0.173E-02    0.964E-03
RMM:  33    -0.283496407670E+02   -0.76861E-04   -0.72944E-06    64   0.167E-02    0.234E-03
RMM:  34    -0.283496620505E+02   -0.21284E-04   -0.33152E-06    74   0.955E-03    0.576E-03
RMM:  35    -0.283496727468E+02   -0.10696E-04   -0.21729E-07    54   0.258E-03    0.521E-03
RMM:  36    -0.283496771932E+02   -0.44463E-05   -0.13817E-07    60   0.238E-03    0.334E-03
RMM:  37    -0.283496803885E+02   -0.31953E-05   -0.31651E-07    64   0.345E-03    0.634E-04
RMM:  38    -0.283496822972E+02   -0.19088E-05   -0.78368E-08    56   0.161E-03    0.336E-04
RMM:  39    -0.283496831631E+02   -0.86591E-06   -0.24375E-08    44   0.885E-04    0.755E-04
RMM:  40    -0.283496835786E+02   -0.41547E-06   -0.10942E-08    44   0.611E-04    0.371E-04
RMM:  41    -0.283496836587E+02   -0.80047E-07   -0.54051E-09    42   0.363E-04    0.368E-04
RMM:  42    -0.283496837780E+02   -0.11934E-06   -0.55004E-09    38   0.411E-04    0.127E-04
RMM:  43    -0.283496838192E+02   -0.41155E-07   -0.38771E-09    44   0.391E-04    0.751E-05
RMM:  44    -0.283496838694E+02   -0.50243E-07   -0.30599E-09    36   0.344E-04    0.542E-05
RMM:  45    -0.283496838931E+02   -0.23703E-07   -0.35786E-09    40   0.413E-04    0.245E-04
RMM:  46    -0.283496839061E+02   -0.13037E-07   -0.84448E-10    38   0.205E-04    0.185E-04
RMM:  47    -0.283496839342E+02   -0.28085E-07   -0.24883E-09    40   0.385E-04    0.486E-05
RMM:  48    -0.283496839414E+02   -0.72059E-08   -0.69167E-10    40   0.197E-04
   1 F= -.28349684E+02 E0= -.28349684E+02  d E =-.680383E-15
