-1.883378540039062500e+03
-1.878352905273437500e+03
-1.872334106445312500e+03
-1.879038452148437500e+03
-1.880819702148437500e+03
-1.886821044921875000e+03
-1.872140380859375000e+03
-1.873941772460937500e+03
-1.880499267578125000e+03
-1.888811523437500000e+03
-1.877883178710937500e+03
-1.873589111328125000e+03
-1.877120605468750000e+03
-1.875248901367187500e+03
-1.872263793945312500e+03
-1.877907104492187500e+03
-1.872506225585937500e+03
-1.879135375976562500e+03
-1.879869018554687500e+03
-1.875857421875000000e+03
-1.880618408203125000e+03
-1.881045410156250000e+03
-1.875201660156250000e+03
-1.875977294921875000e+03
-1.873402832031250000e+03
-1.881875366210937500e+03
-1.876850097656250000e+03
-1.880313964843750000e+03
-1.879653076171875000e+03
-1.877275024414062500e+03
-1.881824707031250000e+03
-1.872526977539062500e+03
-1.877175903320312500e+03
-1.877493164062500000e+03
-1.872887207031250000e+03
-1.872769409179687500e+03
-1.877166992187500000e+03
-1.872084960937500000e+03
-1.882263061523437500e+03
-1.872183349609375000e+03
-1.876919921875000000e+03
-1.872793823242187500e+03
-1.877786376953125000e+03
-1.880992919921875000e+03
-1.870102905273437500e+03
-1.873257812500000000e+03
-1.883109619140625000e+03
-1.879231811523437500e+03
-1.872613525390625000e+03
-1.881501464843750000e+03
-1.881481079101562500e+03
-1.878242797851562500e+03
-1.874090698242187500e+03
-1.872582397460937500e+03
-1.874994750976562500e+03
-1.872364135742187500e+03
-1.872211181640625000e+03
-1.873732543945312500e+03
-1.873014648437500000e+03
-1.870388427734375000e+03
-1.877760375976562500e+03
-1.878923706054687500e+03
-1.873797241210937500e+03
-1.873955322265625000e+03
-1.873015136718750000e+03
-1.877969604492187500e+03
-1.875566772460937500e+03
-1.884991577148437500e+03
-1.878022949218750000e+03
-1.871493286132812500e+03
-1.873922485351562500e+03
-1.874843139648437500e+03
-1.872692871093750000e+03
-1.881112548828125000e+03
-1.879753295898437500e+03
-1.880714355468750000e+03
-1.873796875000000000e+03
-1.878029296875000000e+03
-1.871082885742187500e+03
-1.883252563476562500e+03
-1.880925292968750000e+03
-1.874858642578125000e+03
-1.882764282226562500e+03
-1.888397094726562500e+03
-1.876527465820312500e+03
-1.872548706054687500e+03
-1.873254272460937500e+03
-1.879586669921875000e+03
-1.874039062500000000e+03
-1.877149658203125000e+03
-1.878020019531250000e+03
-1.878242797851562500e+03
-1.872118530273437500e+03
-1.877899169921875000e+03
-1.876653686523437500e+03
-1.877967651367187500e+03
-1.878273315429687500e+03
-1.880724365234375000e+03
-1.878354614257812500e+03
-1.875542358398437500e+03
