6.848850250244140625e-01 -5.960239768028259277e-01 1.591186046600341797e+00 4.155789911746978760e-01 9.236419796943664551e-01 1.267810016870498657e-01 1.053158044815063477e+00 6.912069916725158691e-01 2.174989938735961914e+00 1.129953980445861816e+00 -6.057569980621337891e-01 -1.018969058990478516e+00 -3.699500113725662231e-02 -5.009980201721191406e-01 8.376470208168029785e-01 5.191959738731384277e-01 -4.097180068492889404e-01 5.066729784011840820e-01 -2.069129943847656250e-01 -1.551341056823730469e+00 -3.792330026626586914e-01 -4.255729913711547852e-01 1.697381019592285156e+00 -1.059959977865219116e-01 3.438720107078552246e-01 1.348235964775085449e+00 -1.869691014289855957e+00 1.681440025568008423e-01 8.741120100021362305e-01 -7.236299663782119751e-02 6.662089824676513672e-01 -8.041329979896545410e-01 8.417620062828063965e-01 4.982329905033111572e-01 -5.974329710006713867e-01 1.894180029630661011e-01 7.735859751701354980e-01 5.793340206146240234e-01 -6.066700220108032227e-01 -9.885799884796142578e-02 4.685699939727783203e-02 2.373510003089904785e-01 1.227799057960510254e+00 6.982510089874267578e-01 1.864272952079772949e+00 -1.154425024986267090e+00 -5.238090157508850098e-01 3.179390132427215576e-01 8.147439956665039062e-01 -9.756050109863281250e-01 9.713029861450195312e-01 -4.780749976634979248e-01 4.099369943141937256e-01 1.143020987510681152e+00 9.702800214290618896e-02 -1.478999969549477100e-03 -1.952610015869140625e+00 -6.039609909057617188e-01 5.613030195236206055e-01 2.905479967594146729e-01 4.369440078735351562e-01 -2.603220045566558838e-01 -6.935200095176696777e-02 1.076223015785217285e+00 5.953130125999450684e-01 -1.053470969200134277e+00 2.387800067663192749e-01 -1.450343012809753418e+00 -1.512797951698303223e+00 -3.846519887447357178e-01 -3.100430071353912354e-01 -1.453047990798950195e+00 7.195569872856140137e-01 6.063770055770874023e-01 7.428320050239562988e-01 4.231759905815124512e-01 -8.449640274047851562e-01 6.711599826812744141e-01 7.991510033607482910e-01 2.973349988460540771e-01 -7.331230044364929199e-01 -1.155774950981140137e+00 5.145990252494812012e-01 -3.170160055160522461e-01 -6.886599957942962646e-02 -2.075880020856857300e-01 -3.412469923496246338e-01 -8.443670272827148438e-01 9.959710240364074707e-01 -7.316619753837585449e-01 -2.878929972648620605e-01 -3.328500092029571533e-01 3.036749958992004395e-01 -6.693210005760192871e-01 9.395509958267211914e-01 9.947779774665832520e-01 6.888499855995178223e-02 7.846789956092834473e-01 5.208899974822998047e-01 -5.724599957466125488e-02 -1.043094992637634277e+00 -3.001410067081451416e-01 -2.003089934587478638e-01 1.561372995376586914e+00 1.677799969911575317e-01 1.643771052360534668e+00 -9.394329786300659180e-01 1.677819013595581055e+00 9.561229944229125977e-01 3.228729963302612305e-01 -8.353899717330932617e-01 -8.131629824638366699e-01 -2.947160005569458008e-01 1.002411961555480957e+00 2.899380028247833252e-01 -1.539131999015808105e+00 -3.438499867916107178e-01 4.746379852294921875e-01 -7.065979838371276855e-01 2.265470027923583984e-01 -1.579439043998718262e+00 7.653980255126953125e-01 1.622238993644714355e+00 -5.174720287322998047e-01 -4.961299896240234375e-02 2.428800016641616821e-01 -1.313357949256896973e+00 -2.087418079376220703e+00 -2.619580030441284180e-01 -1.337900012731552124e-02 5.250759720802307129e-01 2.127809971570968628e-01 5.624769926071166992e-01 8.839910030364990234e-01 3.858000040054321289e-01 -7.385450005531311035e-01 4.375619888305664062e-01 -3.759450018405914307e-01 8.287910223007202148e-01 -6.230289936065673828e-01 -4.077099859714508057e-01 2.026409953832626343e-01 5.083130002021789551e-01 1.272979974746704102e+00 -1.047613978385925293e+00 -8.586999960243701935e-03 -4.841100051999092102e-02 -7.006689906120300293e-01 2.755460143089294434e-01 -3.598619997501373291e-01 -1.124729990959167480e+00 -1.117573976516723633e+00 -1.310747027397155762e+00 -4.654130041599273682e-01 -7.816659808158874512e-01 4.039089977741241455e-01 1.889027953147888184e+00 1.064689978957176208e-01 -3.885740041732788086e-01 -1.183985948562622070e+00 1.399073004722595215e+00 1.034517049789428711e+00 1.131657004356384277e+00 -1.071920990943908691e+00 4.958640038967132568e-01 -1.783733010292053223e+00 -1.148520946502685547e+00 -1.055194973945617676e+00 -6.719430088996887207e-01 -1.578599959611892700e-01 -4.774659872055053711e-01 4.066900014877319336e-01 -7.550690174102783203e-01 5.576120018959045410e-01 -8.664119839668273926e-01 1.196228027343750000e+00 1.093549013137817383e+00 6.669600307941436768e-02 5.351870059967041016e-01 7.161299884319305420e-02 8.906800150871276855e-01 -1.690340042114257812e-01 -6.885799765586853027e-02 -3.611800074577331543e-02 -4.557519853115081787e-01 4.496159851551055908e-01 -1.406370043754577637e+00 -1.209240034222602844e-01 2.619099915027618408e-01 1.682700030505657196e-02 4.432879984378814697e-01 3.545970022678375244e-01 2.329580068588256836e+00 -2.500399947166442871e-01 -8.527770042419433594e-01 -1.518188953399658203e+00 -1.438068985939025879e+00 -8.337230086326599121e-01 -3.545249998569488525e-01 8.676599860191345215e-01 -1.105100009590387344e-02 -1.338595032691955566e+00 -2.038339972496032715e-01 -6.278079748153686523e-01 2.868657112121582031e+00 -6.103700026869773865e-02 -2.493779957294464111e-01 -1.114328980445861816e+00 1.120090007781982422e+00 -5.406259894371032715e-01 -3.977596998214721680e+00 1.892346024513244629e+00 -1.151803970336914062e+00 5.835999846458435059e-01 7.226900011301040649e-02 -3.631260097026824951e-01 4.451929926872253418e-01 9.404209852218627930e-01 -1.436633944511413574e+00 -1.258738040924072266e+00 -1.330507993698120117e+00 8.830369710922241211e-01 2.295079976320266724e-01 1.370725989341735840e+00 1.001392006874084473e+00 1.156631946563720703e+00 -5.125299841165542603e-02 -4.899519979953765869e-01 2.424860000610351562e-01 1.931046009063720703e+00 2.083676099777221680e+00 2.174129933118820190e-01 1.581655979156494141e+00 5.489919781684875488e-01 8.463420271873474121e-01 -2.931509912014007568e-01 1.707141995429992676e+00 -2.846230030059814453e+00 6.454200297594070435e-02 9.255920052528381348e-01 -6.591200083494186401e-02 1.672582030296325684e+00 -1.840070039033889771e-01 1.238400023430585861e-02 8.314570188522338867e-01 9.978099912405014038e-02 1.157760977745056152e+00 1.343400031328201294e-02 -2.508994102478027344e+00 9.735180139541625977e-01 1.337869048118591309e+00 -2.776060104370117188e-01 -1.137859970331192017e-01 7.275559902191162109e-01 1.452453970909118652e+00 -7.470309734344482422e-01 -2.436950057744979858e-01 -6.409000139683485031e-03 4.087600111961364746e-02 9.169229865074157715e-01 -1.640080064535140991e-01 -1.467199996113777161e-02 5.635700002312660217e-02 -2.665030062198638916e-01 -1.200523018836975098e+00 -1.507612943649291992e+00 -1.522799953818321228e-02 -4.269660115242004395e-01 1.249354004859924316e+00 -7.839100062847137451e-02 1.269840955734252930e+00 1.398687005043029785e+00 6.688299775123596191e-01 1.164170026779174805e+00 8.979800343513488770e-02 -4.609110057353973389e-01 -5.661240220069885254e-01 -3.700670003890991211e-01 7.369830012321472168e-01 -7.218679785728454590e-01 6.203119754791259766e-01 8.596349954605102539e-01 -2.083372116088867188e+00 1.225914001464843750e+00 3.301480114459991455e-01 -6.238740086555480957e-01 -3.626280128955841064e-01 2.227109968662261963e-01 -7.813990116119384766e-01 -7.156659960746765137e-01 -1.563344001770019531e+00 1.333271980285644531e+00 -7.247049808502197266e-01 4.917210042476654053e-01 -1.405750036239624023e+00 -9.738450050354003906e-01 -5.402209758758544922e-01 5.313889980316162109e-01 8.410000205039978027e-01 -3.984500095248222351e-02 5.589399933815002441e-01 -1.441596984863281250e+00 -5.434939861297607422e-01 8.670539855957031250e-01 1.558385968208312988e+00 4.744339883327484131e-01 7.562860250473022461e-01 -1.320940017700195312e+00 1.334673047065734863e+00 5.754199996590614319e-02 7.633960247039794922e-01 -1.137300021946430206e-02 9.289240241050720215e-01 3.800610005855560303e-01 2.971602916717529297e+00 -1.076084971427917480e+00 1.435379981994628906e-01 -4.427939951419830322e-01 -1.983633995056152344e+00 -5.559250116348266602e-01 -1.824730038642883301e-01 7.273659706115722656e-01 -1.331673979759216309e+00 -1.609320044517517090e-01 -1.232187986373901367e+00 -2.120590060949325562e-01 -9.315600246191024780e-02 -2.310840040445327759e-01 -1.077393054962158203e+00 -1.447200030088424683e-01 -4.782249927520751953e-01 -3.697350025177001953e-01 2.216871976852416992e+00 2.162940055131912231e-01 -3.736929893493652344e-01 1.092320010066032410e-01 2.074399963021278381e-02 9.709799885749816895e-01 1.134037971496582031e+00 8.151199668645858765e-02 -9.589920043945312500e-01 1.099534988403320312e+00 9.065499901771545410e-02 3.967030048370361328e-01 -1.818680018186569214e-01 -5.805079936981201172e-01 1.599465966224670410e+00 6.319140195846557617e-01 4.109880030155181885e-01 5.673999786376953125e-01 1.242094039916992188e+00 8.489159941673278809e-01 9.561300277709960938e-02 1.320901989936828613e+00 -3.456889986991882324e-01 -8.327190279960632324e-01 -2.088965892791748047e+00 1.672307968139648438e+00 7.522789835929870605e-01 -1.912690043449401855e+00 -8.290489912033081055e-01 -3.552730083465576172e-01 -5.355200171470642090e-02 5.167250037193298340e-01 -3.844040036201477051e-01 5.109930038452148438e-01 3.381080031394958496e-01 9.464500099420547485e-02 -7.898200154304504395e-01 -1.956499926745891571e-02 -3.603720068931579590e-01 -1.090520024299621582e-01 -2.544300071895122528e-02 5.446910262107849121e-01 -1.829430013895034790e-01 -2.252220064401626587e-01 1.309289932250976562e-01 -6.793810129165649414e-01 -1.077602028846740723e+00 -1.554400008171796799e-02 4.117349982261657715e-01 -1.252400036901235580e-02 -5.074120163917541504e-01 2.643930017948150635e-01 -1.861409991979598999e-01 2.953279912471771240e-01 -2.814579904079437256e-01 3.534010052680969238e-01 3.926570117473602295e-01 -4.444270133972167969e-01 -2.787410020828247070e-01 3.272469937801361084e-01 -9.509879946708679199e-01 -8.219099789857864380e-02 3.426119983196258545e-01 9.894080162048339844e-01 -3.826589882373809814e-01 4.215539991855621338e-01 -1.236158967018127441e+00 -1.101495027542114258e+00 -1.043596029281616211e+00 2.747299969196319580e-01 -8.267920017242431641e-01 -8.120449781417846680e-01 -1.386186003684997559e+00 -9.357270002365112305e-01 1.479180008172988892e-01 -7.789999991655349731e-02 -2.934220135211944580e-01 -1.535910069942474365e-01 1.407649964094161987e-01 -2.431540042161941528e-01 4.631049931049346924e-01 1.322059929370880127e-01 -5.330999940633773804e-02 2.476509958505630493e-01 4.256910085678100586e-01 -8.216080069541931152e-01 -3.682120144367218018e-01 5.393880009651184082e-01 1.242410019040107727e-01 6.310880184173583984e-01 -9.016270041465759277e-01 -8.155000209808349609e-02 7.294499874114990234e-02 -6.668459773063659668e-01 5.912600085139274597e-02 8.194739818572998047e-01 -1.430449932813644409e-01 5.343790054321289062e-01 -8.721860051155090332e-01 -8.379500359296798706e-02 1.742759943008422852e-01 -4.910410046577453613e-01 1.764649987220764160e+00 5.331299826502799988e-02 1.592539995908737183e-01 2.929620146751403809e-01 -7.919279932975769043e-01 3.747079968452453613e-01 -1.171818971633911133e+00 -8.119799941778182983e-02 4.961600154638290405e-02 1.979109942913055420e-01 -4.747889935970306396e-01 -1.196454048156738281e+00 2.396800071001052856e-01 -2.512669861316680908e-01 -5.530359745025634766e-01 -3.918470144271850586e-01 7.667300105094909668e-02 6.567950248718261719e-01 -5.513799935579299927e-02 -2.074159979820251465e-01 6.790799647569656372e-02 -1.347060054540634155e-01 -5.203750133514404297e-01 2.018550038337707520e-01 4.128409922122955322e-01 1.769029945135116577e-01 1.266469955444335938e-01 7.127100229263305664e-02 -1.619720011949539185e-01 -3.456319868564605713e-01 -1.459959983825683594e+00 7.940499782562255859e-01 5.656219720840454102e-01 -1.351299975067377090e-02 8.102300018072128296e-02 -4.916799962520599365e-01 2.603099942207336426e-01 -8.111499994993209839e-02 -3.368549942970275879e-01 -4.254420101642608643e-01 -1.205082058906555176e+00 -3.613179922103881836e-01 -5.601639747619628906e-01 2.082519978284835815e-01 -9.141299873590469360e-02 -2.941000042483210564e-03 -1.875230073928833008e-01 1.611389040946960449e+00 -2.943319976329803467e-01 3.860689997673034668e-01 -1.227030992507934570e+00 3.561000153422355652e-02 8.676639795303344727e-01 1.373479962348937988e-01 1.472602009773254395e+00 4.583410024642944336e-01 -7.501680254936218262e-01 -2.720780074596405029e-01 -2.593530118465423584e-01 -2.806589901447296143e-01 -6.892660260200500488e-01 3.329069912433624268e-01 6.087110042572021484e-01 -5.561529994010925293e-01 -1.111207008361816406e+00 -1.599880009889602661e-01 5.704659819602966309e-01 5.641080141067504883e-01 6.465479731559753418e-01 -1.323360055685043335e-01 1.528799980878829956e-01 3.594689965248107910e-01 -2.474999986588954926e-03 1.592369973659515381e-01 -8.261269927024841309e-01 4.946379959583282471e-01 -8.527190089225769043e-01 9.610700011253356934e-01 1.231724023818969727e+00 -2.850000048056244850e-03 -1.768160015344619751e-01 1.319509983062744141e+00 -1.566410064697265625e-01 -9.604699909687042236e-02 1.411560028791427612e-01 -1.018592953681945801e+00 2.228399962186813354e-01 8.023769855499267578e-01 9.143919944763183594e-01 7.805529832839965820e-01 1.486130058765411377e-01 3.429639935493469238e-01 5.486909747123718262e-01 -1.181100029498338699e-02 -1.549289971590042114e-01 -8.076000027358531952e-03 6.417670249938964844e-01 -7.125710248947143555e-01 -1.572870016098022461e-01 -2.281579971313476562e-01 3.047110140323638916e-01 5.155349969863891602e-01 7.248699665069580078e-02 1.932130008935928345e-01 -4.906159937381744385e-01 5.162240266799926758e-01 -7.990210056304931641e-01 -6.790969967842102051e-01 -1.433693051338195801e+00 -3.553999960422515869e-02 7.767400145530700684e-01 -5.329669713973999023e-01 -7.461559772491455078e-01 -1.378121018409729004e+00 -2.222249954938888550e-01 6.004790067672729492e-01 -5.062700062990188599e-02 1.349129974842071533e-01 -1.288810074329376221e-01 -3.928630053997039795e-01 -1.903280019760131836e-01 4.994490146636962891e-01 -7.986570000648498535e-01 4.079540073871612549e-01 -8.315700292587280273e-02 1.465409994125366211e-01 -4.595490097999572754e-01 5.066599845886230469e-01 -1.108698964118957520e+00 -9.371439814567565918e-01 3.392220139503479004e-01 3.070870041847229004e-01 3.696630001068115234e-01 3.154790103435516357e-01 -4.544300138950347900e-01 3.583489954471588135e-01 9.156700223684310913e-02 1.280139982700347900e-01 -1.101600006222724915e-01 -1.365289986133575439e-01 -3.126649856567382812e-01 4.000619947910308838e-01 -3.039300069212913513e-02 1.284539997577667236e-01 2.398020029067993164e-01 7.291900366544723511e-02 3.533940017223358154e-01 7.209599763154983521e-02 6.915999948978424072e-02 -1.294316053390502930e+00 -7.692869901657104492e-01 -1.840101003646850586e+00 8.789680004119873047e-01 -1.383113026618957520e+00 -2.445120066404342651e-01 -1.968369930982589722e-01 -1.796129941940307617e-01 1.837439984083175659e-01 7.007060050964355469e-01 1.667799949645996094e-01 -2.295150011777877808e-01 -7.513960003852844238e-01 9.900429844856262207e-01 2.998029887676239014e-01 -8.590000215917825699e-04 -1.156599968671798706e-01 1.135049983859062195e-01 -6.685469746589660645e-01 2.944659888744354248e-01 2.241850048303604126e-01 6.642730236053466797e-01 -4.727340042591094971e-01 -5.121099948883056641e-01 4.130379855632781982e-01 3.972710072994232178e-01 4.099819958209991455e-01 -1.779600046575069427e-02 5.050199851393699646e-02 -1.379372000694274902e+00 2.234700024127960205e-01 8.168259859085083008e-01 5.140569806098937988e-01 -3.870939910411834717e-01 -5.255759954452514648e-01 5.570799857378005981e-02 1.006049036979675293e+00 -1.355970054864883423e-01 -6.008840203285217285e-01 6.463850140571594238e-01 -4.121519923210144043e-01 3.784399852156639099e-02 -5.771679878234863281e-01 -1.228600978851318359e+00 5.108770132064819336e-01 -1.878059953451156616e-01 -4.625039994716644287e-01 9.262610077857971191e-01 6.768999993801116943e-02 4.372400045394897461e-02 -1.677789986133575439e-01 -2.683390080928802490e-01 -2.549899928271770477e-02 1.704694032669067383e+00 -2.408199943602085114e-02 -2.780979871749877930e-01 6.427720189094543457e-01 2.313749939203262329e-01 -1.197620034217834473e-01 2.127860039472579956e-01 2.058136940002441406e+00 4.922199994325637817e-02 2.953999908640980721e-03 -2.173389941453933716e-01 -2.277529984712600708e-01 4.756299853324890137e-01 -4.474259912967681885e-01 -2.933570146560668945e-01 1.829369962215423584e-01 1.496579945087432861e-01 2.624770104885101318e-01 -4.094799980521202087e-02 3.269790112972259521e-01 4.936099946498870850e-01 -4.594439864158630371e-01 2.332540005445480347e-01 -5.654579997062683105e-01 3.505400121212005615e-01 -5.684459805488586426e-01 -2.401999896392226219e-03 5.988889932632446289e-01 -4.138840138912200928e-01 6.799209713935852051e-01 -2.397219985723495483e-01 4.408609867095947266e-01 3.565410077571868896e-01 2.739779949188232422e-01 -5.882459878921508789e-01 -6.272100210189819336e-01 5.301300063729286194e-02 -2.775230109691619873e-01 -1.637610048055648804e-01 6.615470051765441895e-01 -1.978189945220947266e-01 3.443570137023925781e-01 6.004369854927062988e-01 5.533919930458068848e-01 7.197790145874023438e-01 8.539270162582397461e-01 6.135060191154479980e-01 3.414550125598907471e-01 5.017679929733276367e-01 -2.570700049400329590e-01 3.022620081901550293e-01 -2.546670138835906982e-01 -8.342999964952468872e-02 2.074529975652694702e-01 3.312940001487731934e-01 5.134559869766235352e-01 5.137490034103393555e-01 9.514949917793273926e-01 1.113630011677742004e-01 -1.202569976449012756e-01 -1.042255043983459473e+00 8.715649843215942383e-01 3.336170017719268799e-01 5.233979821205139160e-01 -1.067404985427856445e+00 -1.258417010307312012e+00 -4.583939909934997559e-01 -1.697490066289901733e-01 -7.246170043945312500e-01 2.746230065822601318e-01 9.667750000953674316e-01 2.610940039157867432e-01 -5.765519738197326660e-01 -5.964599847793579102e-01 -1.430169939994812012e-01 6.432340145111083984e-01 -2.078540027141571045e-01 6.218289732933044434e-01 -2.670840024948120117e-01 5.479429960250854492e-01 -1.175399962812662125e-02 1.262444019317626953e+00 -1.062119975686073303e-01 7.767320275306701660e-01 -4.106740057468414307e-01 2.330799996852874756e-01 6.080440282821655273e-01 -1.103409975767135620e-01 7.040190100669860840e-01 -2.206439971923828125e-01 -1.172806024551391602e+00 -2.443539947271347046e-01 -3.729400038719177246e-02 -1.558820009231567383e-01 6.614100188016891479e-02 3.263120055198669434e-01 8.288840055465698242e-01 -1.847420036792755127e-01 -7.116690278053283691e-01 -7.082699984312057495e-02 8.050000178627669811e-04 -3.772299885749816895e-01 1.649667024612426758e+00 -6.874920129776000977e-01 -8.998649716377258301e-01 2.038860023021697998e-01 -3.297640085220336914e-01 -1.660760045051574707e-01 5.824120044708251953e-01 -5.563790202140808105e-01 3.049049973487854004e-01 4.320700094103813171e-02 1.991180032491683960e-01 -3.327400088310241699e-01 6.822590231895446777e-01 3.909899890422821045e-01 3.070360124111175537e-01 -4.800900071859359741e-02 -1.030037999153137207e+00 -4.161210060119628906e-01 -1.206418991088867188e+00 -4.388560056686401367e-01 2.443830072879791260e-01 6.352599710226058960e-02 -1.265790015459060669e-01 3.965000156313180923e-03 8.433039784431457520e-01 -4.760679900646209717e-01 -9.128509759902954102e-01 -1.877339929342269897e-01 7.435789704322814941e-01 1.358299981802701950e-02 -1.673465967178344727e+00 4.755200147628784180e-01 2.774820029735565186e-01 5.636500120162963867e-01 7.463819980621337891e-01 -2.335879951715469360e-01 1.851609945297241211e-01 -1.657900065183639526e-01 -1.932599991559982300e-01 1.178604006767272949e+00 1.804939955472946167e-01 3.364740014076232910e-01 -5.212060213088989258e-01 -1.113729998469352722e-01 2.216089963912963867e-01 7.302989959716796875e-01 4.959979951381683350e-01 1.031110048294067383e+00 1.647409945726394653e-01 -2.845869958400726318e-01 -9.761700034141540527e-02 1.074919998645782471e-01 1.799640059471130371e-01 -7.283729910850524902e-01 -2.004547119140625000e+00 -3.378299996256828308e-02 -1.605900004506111145e-02 8.640450239181518555e-01 -9.010120034217834473e-01 3.501209914684295654e-01 -4.443779885768890381e-01 2.109169960021972656e-01 -8.358430266380310059e-01 9.210439920425415039e-01 4.193249940872192383e-01 8.787620067596435547e-01 1.251600030809640884e-02 -5.163270235061645508e-01 1.193030029535293579e-01 1.985570043325424194e-01 -2.887500077486038208e-02 3.854300081729888916e-02 1.415670990943908691e+00 8.295869827270507812e-01 7.046030163764953613e-01 -1.098019957542419434e+00 -1.386760026216506958e-01 -1.656560003757476807e-01 6.093800067901611328e-02 1.348980069160461426e-01 -3.186700120568275452e-02 1.899857997894287109e+00 4.049589931964874268e-01 1.359470039606094360e-01 -1.307149976491928101e-01 -4.157980084419250488e-01 7.106000091880559921e-03 -1.658640056848526001e-01 1.438820064067840576e-01 -3.510360121726989746e-01 -2.194990068674087524e-01 -7.484040260314941406e-01 1.275882959365844727e+00 -8.068609833717346191e-01 6.229709982872009277e-01 -1.017930030822753906e+00 7.173990011215209961e-01 6.398360133171081543e-01 -1.288540065288543701e-01 -1.086279034614562988e+00 4.897300153970718384e-02 7.143800258636474609e-01 1.262190043926239014e-01 -2.829129993915557861e-01 -1.759075045585632324e+00 -2.400590032339096069e-01 -7.640659809112548828e-01 -1.108060032129287720e-01 -8.165820240974426270e-01 9.695400297641754150e-02 -1.170413017272949219e+00 1.229289993643760681e-01 3.184620141983032227e-01 -1.132905960083007812e+00 -8.840339779853820801e-01 -8.413050174713134766e-01 -3.124569952487945557e-01 6.480699777603149414e-02 -4.696680009365081787e-01 -1.841589957475662231e-01 3.569549918174743652e-01 2.468629926443099976e-01 -4.217849969863891602e-01 2.142708063125610352e+00 -7.221729755401611328e-01 1.275549978017807007e-01 3.283089995384216309e-01 4.903270006179809570e-01 -4.170629978179931641e-01 -2.311870008707046509e-01 -1.049023032188415527e+00 9.622400254011154175e-02 -1.041623950004577637e+00 -5.492309927940368652e-01 1.453979969024658203e+00 -8.485620021820068359e-01 -1.526460051536560059e+00 -6.466680169105529785e-01 -2.554480135440826416e-01 -1.773110032081604004e+00 5.925070047378540039e-01 1.588750034570693970e-01 3.448339998722076416e-01 -5.218299850821495056e-02 8.511299639940261841e-02 -3.544749915599822998e-01 4.443359971046447754e-01 -1.166473031044006348e+00 -3.555450141429901123e-01 6.076809763908386230e-01 3.617300093173980713e-01 -3.721649944782257080e-01 -1.220788955688476562e+00 -5.539680123329162598e-01 8.400700241327285767e-02 4.864899814128875732e-02 -1.293630003929138184e-01 -3.339250087738037109e-01 -1.379300057888031006e-01 1.291349977254867554e-01 2.558760046958923340e-01 2.249470055103302002e-01 -3.595579862594604492e-01 -3.576540052890777588e-01 -1.034390032291412354e-01 -1.281033039093017578e+00 9.439420104026794434e-01 2.440910041332244873e-01 -2.861100062727928162e-02 -5.216090083122253418e-01 9.727399796247482300e-02 -3.010480105876922607e-01 -3.168559968471527100e-01 1.560370028018951416e-01 -2.336760014295578003e-01 1.132096052169799805e+00 -5.354989767074584961e-01 -4.611980020999908447e-01 -5.658100172877311707e-02 5.049700140953063965e-01 -1.855510026216506958e-01 -5.026209950447082520e-01 -1.024057030677795410e+00 -8.560780286788940430e-01 -7.705500125885009766e-01 4.594950079917907715e-01 1.277806997299194336e+00 6.712369918823242188e-01 3.012590110301971436e-01 4.964019954204559326e-01 -7.805629968643188477e-01 -2.036840021610260010e-01 7.971999794244766235e-02 -3.914639949798583984e-01 -5.426689982414245605e-01 -7.912999950349330902e-03 5.736269950866699219e-01 -1.669020056724548340e-01 -2.972099930047988892e-02 1.817449927330017090e-01 -3.302569985389709473e-01 7.454410195350646973e-01 -6.500300019979476929e-02 -3.847239911556243896e-01 1.363397955894470215e+00 -1.619256973266601562e+00 -2.518729865550994873e-01 4.594509899616241455e-01 4.668250083923339844e-01 -4.330199956893920898e-02 7.661070227622985840e-01 7.556699961423873901e-02 -1.943860054016113281e-01 -1.327699981629848480e-02 -5.323989987373352051e-01 -6.788020133972167969e-01 7.346659898757934570e-01 6.015900149941444397e-02 -1.592909991741180420e-01 4.377720057964324951e-01 -2.423820048570632935e-01 7.805600017309188843e-02 1.415992021560668945e+00 8.860199898481369019e-02 1.326369047164916992e+00 1.456000027246773243e-03 -5.388820171356201172e-01 -8.521969914436340332e-01 -2.368919998407363892e-01 -7.822279930114746094e-01 3.951550126075744629e-01 -3.033980131149291992e-01 -3.420050144195556641e-01 2.208179980516433716e-01 -7.161269783973693848e-01 7.139160037040710449e-01 -3.857000032439827919e-03 -6.691599637269973755e-02 8.584349751472473145e-01 -6.552420258522033691e-01 1.756175994873046875e+00 1.573176026344299316e+00 -1.318929940462112427e-01 -8.820000221021473408e-04 -5.109009742736816406e-01 -5.187800154089927673e-02 -8.612959980964660645e-01 -4.711900055408477783e-01 -1.080039963126182556e-01 -1.270503044128417969e+00 -1.025681972503662109e+00 8.442299813032150269e-02 -8.138909935951232910e-01 1.398810029029846191e+00 -3.777770102024078369e-01 1.207839995622634888e-01 -3.196800127625465393e-02 -2.318370044231414795e-01 3.075770139694213867e-01 2.454410046339035034e-01 5.982900261878967285e-01 2.312850058078765869e-01 -7.664009928703308105e-01 -4.501230120658874512e-01 -4.234440028667449951e-01 -3.173469901084899902e-01 -5.275319814682006836e-01 1.760360002517700195e-01 -3.545770049095153809e-01 6.843300163745880127e-02 -2.696489989757537842e-01 1.073135972023010254e+00 -6.498020291328430176e-01 7.858660221099853516e-01 -2.412869930267333984e-01 9.592970013618469238e-01 8.409270048141479492e-01 9.898599982261657715e-02 6.694470047950744629e-01 -3.912490010261535645e-01 8.431950211524963379e-01 5.036389827728271484e-01 -6.157540082931518555e-01 -1.083307981491088867e+00 -1.909196019172668457e+00 4.170190095901489258e-01 2.295020073652267456e-01 -6.305059790611267090e-01 7.583709955215454102e-01 4.684930145740509033e-01 -6.385449767112731934e-01 -3.367370069026947021e-01 3.694080114364624023e-01 -5.495669841766357422e-01 1.147526025772094727e+00 -3.231810033321380615e-01 -8.792799711227416992e-02 3.821380138397216797e-01 7.713260054588317871e-01 3.615869879722595215e-01 4.786030054092407227e-01 4.660570025444030762e-01 -2.096174955368041992e+00 8.466999977827072144e-03 5.648919939994812012e-01 6.173610091209411621e-01 2.665759921073913574e-01 4.565449953079223633e-01 4.642199873924255371e-01 -2.862460017204284668e-01 3.119370043277740479e-01 6.814800202846527100e-02 3.150849938392639160e-01 1.150029972195625305e-01 -1.043350026011466980e-01 -3.579980134963989258e-01 4.712220132350921631e-01 -2.407789975404739380e-01 2.995550036430358887e-01 -7.455289959907531738e-01 -2.570419907569885254e-01 -5.144499987363815308e-02 3.945099934935569763e-02 -2.360759973526000977e-01 -3.103570044040679932e-01 -1.316670030355453491e-01 2.634199857711791992e-01 2.327190041542053223e-01 -1.270660012960433960e-01 -5.024470090866088867e-01 -6.660929918289184570e-01 -2.076829969882965088e-01 -9.139789938926696777e-01 -7.273079752922058105e-01 1.094004034996032715e+00 -3.510870039463043213e-01 1.426420062780380249e-01 -4.036819934844970703e-01 -8.053500205278396606e-02 4.397529959678649902e-01 -1.410555005073547363e+00 2.445599995553493500e-02 -1.395619958639144897e-01 -2.435420006513595581e-01 4.528909921646118164e-01 -1.559469997882843018e-01 -3.771800100803375244e-01 -1.265316963195800781e+00 5.507259964942932129e-01 9.387710094451904297e-01 5.648660063743591309e-01 3.187400102615356445e-02 -2.997339963912963867e-01 1.348281979560852051e+00 -4.294529855251312256e-01 -3.552420139312744141e-01 -1.306380987167358398e+00 -6.654980182647705078e-01 -1.176839992403984070e-01 1.147110015153884888e-01 -2.949439883232116699e-01 -2.281610071659088135e-01 1.559378981590270996e+00 -1.565354943275451660e+00 -4.803729951381683350e-01 3.594270050525665283e-01 -1.967429965734481812e-01 2.691189944744110107e-01 -3.429299890995025635e-01 -1.524499952793121338e-01 -4.921770095825195312e-01 -8.060640096664428711e-01 -4.485439956188201904e-01 2.589730024337768555e-01 -6.079720258712768555e-01 -5.797619819641113281e-01 1.022839993238449097e-01 1.458300054073333740e-01 7.688000202178955078e-01 3.083330094814300537e-01 3.902510106563568115e-01 -2.924950122833251953e-01 9.160109758377075195e-01 3.118610084056854248e-01 6.588169932365417480e-01 -2.797760069370269775e-01 9.852769970893859863e-01 5.017669796943664551e-01 5.524000152945518494e-03 -5.579490065574645996e-01 -2.430260032415390015e-01 -9.313900023698806763e-02 -2.543070018291473389e-01 -6.465999782085418701e-02 -4.883210062980651855e-01 5.958650112152099609e-01 3.989560008049011230e-01 7.446650266647338867e-01 2.478200010955333710e-02 2.250394105911254883e+00 -2.369935035705566406e+00 -6.075900048017501831e-02 -1.322800070047378540e-01 -2.839410006999969482e-01 8.109790086746215820e-01 4.859330058097839355e-01 4.330730140209197998e-01 5.420099943876266479e-02 4.095929861068725586e-01 -8.742219805717468262e-01 -4.660170078277587891e-01 -4.229100048542022705e-01 2.707810103893280029e-01 2.924959957599639893e-01