-6.843069999999999986e-01 2.467255999999999894e+00 -3.094099999999999975e-02 -1.003862000000000032e+00 -2.324119000000000046e+00 1.541999999999999968e-02 -8.163949999999999818e-01 -2.374499000000000137e+00 3.916399999999999743e-02 1.417262999999999940e+00 -9.412299999999999833e-02 -8.486999999999999753e-03 5.494569999999999732e-01 1.163326000000000082e+00 -1.717939000000000105e+00 5.378420000000000423e-01 1.162158999999999942e+00 1.702782000000000018e+00
