-2.361762086902904123e+00 -1.294576373674348968e+00 3.042735698488265722e-02 -1.294576373674348968e+00 -3.737790154659861752e+00 4.061349987705260151e-02 3.042735698488265722e-02 4.061349987705260151e-02 -2.761867787858579781e+00
