3.854059875011444092e-01 7.544600218534469604e-02 1.800608038902282715e+00 2.782399952411651611e-02 -3.588210046291351318e-01 1.066064953804016113e+00 1.428261995315551758e+00 2.219615936279296875e+00 -7.570790052413940430e-01 -5.524830222129821777e-01 -6.933320164680480957e-01 -1.758659929037094116e-01 -5.893139839172363281e-01 2.404270023107528687e-01 3.219389915466308594e-01 -6.277760267257690430e-01 1.216600015759468079e-01 3.715640008449554443e-01 -4.984999895095825195e-01 -1.171051025390625000e+00 -1.099619984626770020e+00 1.441606998443603516e+00 -2.936689853668212891e-01 2.223100066184997559e-01 1.722179949283599854e-01 -6.961219906806945801e-01 -2.148500084877014160e-02 6.062669754028320312e-01 -5.727840065956115723e-01 3.406008958816528320e+00 -2.220300026237964630e-02 1.230015993118286133e+00 -1.291658043861389160e+00 -3.098115921020507812e+00 -5.783510208129882812e-01 5.442300066351890564e-02 7.000820040702819824e-01 -9.575139880180358887e-01 -1.496044039726257324e+00 -6.764209866523742676e-01 -2.075165987014770508e+00 -9.542149901390075684e-01 -1.626649945974349976e-01 3.514299988746643066e-01 5.027199983596801758e-01 2.303459942340850830e-01 -4.258170127868652344e-01 2.166109979152679443e-01 -8.253570199012756348e-01 -9.998649954795837402e-01 -1.635735034942626953e+00 5.993999913334846497e-02 -1.108369976282119751e-01 3.089000005275011063e-03 -4.740769863128662109e-01 -5.532529950141906738e-01 1.036496996879577637e+00 3.485789895057678223e-01 -1.228685975074768066e+00 -1.867379993200302124e-01 1.275410056114196777e+00 -8.849409818649291992e-01 -1.446200013160705566e-01 4.061659872531890869e-01 -9.220970273017883301e-01 1.543395996093750000e+00 -2.524470090866088867e+00 -1.185449957847595215e+00 -1.697016000747680664e+00 -1.236315965652465820e+00 2.167659997940063477e-01 5.304660201072692871e-01 7.359780073165893555e-01 5.110520124435424805e-01 3.924089968204498291e-01 1.886433959007263184e+00 -7.481139898300170898e-01 5.688440203666687012e-01 1.505090951919555664e+00 9.093329906463623047e-01 -8.368030190467834473e-01 -4.146479964256286621e-01 -9.663329720497131348e-01 2.784639894962310791e-01 1.451181054115295410e+00 1.883458018302917480e+00 -2.489605903625488281e+00 -1.911165952682495117e+00 1.139754056930541992e+00 1.151262044906616211e+00 -1.346735000610351562e+00 -1.736297965049743652e+00 -3.334510028362274170e-01 7.013720273971557617e-01 5.226000025868415833e-02 9.319589734077453613e-01 2.899970114231109619e-01 -6.588850021362304688e-01 -4.967840015888214111e-01 -1.224030971527099609e+00 5.052400007843971252e-02 -5.611709952354431152e-01 5.335580110549926758e-01 2.061520069837570190e-01 -3.318800032138824463e-01 -1.683390974998474121e+00 -6.475380063056945801e-01 -1.820577025413513184e+00 -3.463630080223083496e-01 -1.371634960174560547e+00 3.133599832653999329e-02 2.093316078186035156e+00 2.135932922363281250e+00 2.530237913131713867e+00 -1.421591043472290039e+00 -4.571349918842315674e-01 4.275670051574707031e-01 -2.020680010318756104e-01 7.263270020484924316e-01 2.334897041320800781e+00 4.336439967155456543e-01 -1.293089985847473145e-01 -2.131484985351562500e+00 -1.991474986076354980e+00 1.627759933471679688e-01 1.825034976005554199e+00 1.279049038887023926e+00 -1.666139960289001465e-01 3.465960025787353516e-01 -2.744880020618438721e-01 -2.609969973564147949e-01 1.787659972906112671e-01 8.344200253486633301e-02 -1.680621981620788574e+00 -1.202059984207153320e-01 2.762700021266937256e-01 1.254784941673278809e+00 -4.708180129528045654e-01 -1.346447944641113281e+00 -1.239542961120605469e+00 -1.418194055557250977e+00 -6.027999892830848694e-02 3.513740003108978271e-01 -5.806080102920532227e-01 -7.071530222892761230e-01 4.928070008754730225e-01 1.289491057395935059e+00 6.140639781951904297e-01 2.835209965705871582e-01 5.795329809188842773e-01 -2.680369913578033447e-01 -3.905520141124725342e-01 -9.119000285863876343e-02 4.621559977531433105e-01 -9.762240052223205566e-01 -3.766089975833892822e-01 1.847051978111267090e+00 1.545200049877166748e-01 -2.425000071525573730e-03 7.546949982643127441e-01 2.288095951080322266e+00 1.569852948188781738e+00 -8.909069895744323730e-01 1.572397947311401367e+00 -5.039820075035095215e-01 -1.325021982192993164e+00 -7.375180125236511230e-01 5.843639969825744629e-01 -1.422541022300720215e+00 2.175043106079101562e+00 1.095559954643249512e+00 1.845159977674484253e-01 -7.377989888191223145e-01 7.191849946975708008e-01 -1.009333968162536621e+00 -9.941939711570739746e-01 -1.078111052513122559e+00 1.234161972999572754e+00 -5.305680036544799805e-01 -8.907210230827331543e-01 2.493757963180541992e+00 1.425614953041076660e+00 6.658139824867248535e-01 -5.965290069580078125e-01 -7.216359972953796387e-01 -1.083215951919555664e+00 -1.006790995597839355e+00 1.623439937829971313e-01 4.586499929428100586e-02 2.011857986450195312e+00 -2.293670028448104858e-01 -1.255187034606933594e+00 -5.250840187072753906e-01 1.734861969947814941e+00 5.772849917411804199e-01 3.492549955844879150e-01 5.691890120506286621e-01 7.836000062525272369e-03 -2.565700113773345947e-01 -8.123679757118225098e-01 -1.110784053802490234e+00 8.305439949035644531e-01 -1.502290070056915283e-01 2.293639928102493286e-01 6.092990040779113770e-01 1.432559967041015625e+00 -1.321321010589599609e+00 -2.196370065212249756e-01 1.414549946784973145e-01 -2.517859935760498047e-01 -1.120964050292968750e+00 2.100590020418167114e-01 6.494320034980773926e-01 6.846470236778259277e-01 -8.967319726943969727e-01 1.522035956382751465e+00 -4.479269981384277344e-01 1.029765963554382324e+00 -4.300670027732849121e-01 4.842199981212615967e-01 -1.641814947128295898e+00 1.770730018615722656e-01 -1.024148941040039062e+00 2.347989976406097412e-01 -1.224177956581115723e+00 -2.841120064258575439e-01 2.830299921333789825e-02 -6.791869997978210449e-01 -5.973610281944274902e-01 2.298289984464645386e-01 -1.713750064373016357e-01 1.182729974389076233e-01 -9.239779710769653320e-01 -2.148739993572235107e-01 1.499675035476684570e+00 1.609804034233093262e+00 -2.899380028247833252e-01 -4.493359923362731934e-01 -4.094560146331787109e-01 6.629999727010726929e-02 -1.063227057456970215e+00 -1.074090003967285156e-01 -5.985900014638900757e-02 4.629209935665130615e-01 -2.122440040111541748e-01 -2.393530011177062988e-01 -7.899709939956665039e-01 3.589160144329071045e-01 -5.508729815483093262e-01 3.990510106086730957e-01 3.822759985923767090e-01 -1.675421953201293945e+00 -1.555189937353134155e-01 7.892829775810241699e-01 -4.837299883365631104e-02 1.035835027694702148e+00 7.696959972381591797e-01 1.419201970100402832e+00 1.364192008972167969e+00 1.153498053550720215e+00 -1.045325040817260742e+00 1.667783021926879883e+00 -2.057439088821411133e+00 -8.045089840888977051e-01 1.482777953147888184e+00 -2.269814014434814453e+00 1.232154011726379395e+00 6.905499845743179321e-02 1.425549983978271484e-01 -9.941819906234741211e-01 1.716835975646972656e+00 1.093016982078552246e+00 5.926079750061035156e-01 9.637899696826934814e-02 1.298056006431579590e+00 1.002331018447875977e+00 -8.587100356817245483e-02 2.785080075263977051e-01 4.805360138416290283e-01 1.151518940925598145e+00 -1.060403943061828613e+00 -4.896200001239776611e-01 2.170427083969116211e+00 -1.323369026184082031e+00 2.385410070419311523e-01 4.896000027656555176e-01 3.040179908275604248e-01 -2.051109969615936279e-01 -2.960920035839080811e-01 1.160120964050292969e+00 1.241372942924499512e+00 2.690620124340057373e-01 -3.727959990501403809e-01 3.902100026607513428e-01 -2.003419995307922363e-01 4.265480041503906250e-01 -6.387540102005004883e-01 -1.010388016700744629e+00 -5.018180012702941895e-01 -8.563839793205261230e-01 -2.967549860477447510e-01 2.067140042781829834e-01 2.532563924789428711e+00 -1.945209950208663940e-01 -3.848809897899627686e-01 -3.093180060386657715e-01 -1.205567002296447754e+00 -2.013500034809112549e-01 2.793700061738491058e-02 -6.054689884185791016e-01 -1.200580954551696777e+00 -1.075587034225463867e+00 -7.829980254173278809e-01 -1.595173954963684082e+00 2.139959931373596191e-01 -6.786879897117614746e-01 -2.268516063690185547e+00 -3.272509872913360596e-01 1.253059983253479004e+00 -3.502410054206848145e-01 1.468894004821777344e+00 1.607118964195251465e+00 -9.216549992561340332e-01 8.441939949989318848e-01 -8.120500296354293823e-02 -2.079453945159912109e+00 -1.862300038337707520e-01 -6.471530199050903320e-01 -1.188179969787597656e+00 1.405344963073730469e+00 7.911880016326904297e-01 1.389261007308959961e+00 8.277119994163513184e-01 1.350470036268234253e-01 4.367609918117523193e-01 -7.772500067949295044e-02 1.473560035228729248e-01 2.484129965305328369e-01 3.394320011138916016e-01 1.224472045898437500e+00 -1.785873055458068848e+00 5.163000151515007019e-02 2.555550038814544678e-01 4.118030071258544922e-01 -4.065360128879547119e-01 4.175890088081359863e-01 5.657230019569396973e-01 1.818200014531612396e-02 -6.262700259685516357e-02 -2.502169907093048096e-01 7.363560199737548828e-01 2.945660054683685303e-01 1.367999985814094543e-02 -4.733340144157409668e-01 2.491340041160583496e-01 -4.018700122833251953e-02 1.522495031356811523e+00 1.115950942039489746e+00 7.465980052947998047e-01 2.858980000019073486e-01 3.828069865703582764e-01 1.404999988153576851e-03 4.031899869441986084e-01 1.283846974372863770e+00 1.184707045555114746e+00 -1.642110049724578857e-01 -5.769900083541870117e-01 8.868599683046340942e-02 1.591919958591461182e-01 -8.945919871330261230e-01 1.568197965621948242e+00 1.456351041793823242e+00 2.570410072803497314e-01 1.774831056594848633e+00 -6.682170033454895020e-01 1.163128018379211426e+00 -6.349710226058959961e-01 -2.500570118427276611e-01 -6.268000230193138123e-03 2.383379936218261719e-01 -9.774140119552612305e-01 7.202800363302230835e-02 2.541860044002532959e-01 -4.071269929409027100e-01 -9.230509996414184570e-01 -9.774019718170166016e-01 -8.265399932861328125e-02 -2.233950048685073853e-01 -1.013999991118907928e-02 -7.376299798488616943e-02 -1.604331970214843750e+00 -2.393975019454956055e+00 3.636539876461029053e-01 4.832270145416259766e-01 5.662279725074768066e-01 -1.541620045900344849e-01 -1.150680035352706909e-01 4.407440125942230225e-01 -1.429597020149230957e+00 5.165590047836303711e-01 5.062429904937744141e-01 -8.481600284576416016e-01 2.557919919490814209e-01 3.166730105876922607e-01 2.460130006074905396e-01 4.784300029277801514e-01 4.297110140323638916e-01 3.616659939289093018e-01 -1.957280039787292480e-01 -2.291429936885833740e-01 2.828499972820281982e-01 7.474910020828247070e-01 7.263699918985366821e-02 2.369080036878585815e-01 9.493970274925231934e-01 -4.306820034980773926e-01 4.810729920864105225e-01 -1.738310009241104126e-01 -2.519899904727935791e-01 1.433479934930801392e-01 5.819879770278930664e-01 2.535560131072998047e-01 -4.363130033016204834e-01 -4.685299843549728394e-02 4.179930090904235840e-01 -4.510920047760009766e-01 -4.100829958915710449e-01 3.731000004336237907e-03 8.691070079803466797e-01 -1.037210941314697266e+00 7.729039788246154785e-01 -2.105299979448318481e-01 3.581799939274787903e-02 4.740520119667053223e-01 9.333200007677078247e-02 -8.093060255050659180e-01 3.555899858474731445e-02 -3.878529965877532959e-01 -2.221519947052001953e-01 -6.856660246849060059e-01 -1.347129940986633301e-01 8.681889772415161133e-01 -2.912400066852569580e-01 1.374490022659301758e+00 -4.634099826216697693e-02 3.116840124130249023e-01 2.679899930953979492e-01 5.598679780960083008e-01 8.618630170822143555e-01 -1.565219044685363770e+00 2.254430055618286133e-01 -7.063540220260620117e-01 1.412472009658813477e+00 2.566253900527954102e+00 3.848679959774017334e-01 -1.273859977722167969e+00 -1.172209978103637695e-01 5.751579999923706055e-01 1.174849033355712891e+00 2.817740142345428467e-01 1.199357032775878906e+00 6.347119808197021484e-01 -9.624999761581420898e-02 6.282600015401840210e-02 4.726850092411041260e-01 -3.037680089473724365e-01 1.055699959397315979e-02 -1.490982055664062500e+00 -3.017210066318511963e-01 3.070760071277618408e-01 1.433680057525634766e-01 3.035370111465454102e-01 1.581169009208679199e+00 4.000450074672698975e-01 4.101819992065429688e-01 -3.560029864311218262e-01 -7.817400097846984863e-01 1.420999970287084579e-02 -4.043599963188171387e-02 8.283770084381103516e-01 3.594169914722442627e-01 -1.067880019545555115e-01 2.007807016372680664e+00 -2.750959992408752441e-01 2.596159875392913818e-01 6.063809990882873535e-01 1.197160959243774414e+00 5.045959949493408203e-01 -7.282999753952026367e-01 -1.016307950019836426e+00 9.487619996070861816e-01 1.293510049581527710e-01 1.388099975883960724e-02 1.463361024856567383e+00 -5.495749711990356445e-01 1.039414048194885254e+00 3.865800052881240845e-02 -7.396099716424942017e-02 -7.076370120048522949e-01 5.458289980888366699e-01 -3.228160142898559570e-01 2.201200090348720551e-02 -1.176799982786178589e-01 -1.463039964437484741e-01 -5.530750155448913574e-01 2.816599979996681213e-02 -4.123159945011138916e-01 -1.629184007644653320e+00 4.841060042381286621e-01 -2.094486951828002930e+00 2.052573919296264648e+00 2.274349927902221680e-01 1.443624973297119141e+00 1.256788969039916992e+00 -1.234299968928098679e-02 -7.450910210609436035e-01 -3.303900063037872314e-01 7.699980139732360840e-01 5.135719776153564453e-01 8.074960112571716309e-01 5.985440015792846680e-01 5.162510275840759277e-01 -2.544699981808662415e-02 3.239659965038299561e-01 -4.413569867610931396e-01 -5.400199815630912781e-02 -1.711000055074691772e-01 -1.449099928140640259e-01 -6.564459800720214844e-01 8.225330114364624023e-01 -1.184960007667541504e-01 2.870529890060424805e-01 -1.459649950265884399e-01 -1.381201028823852539e+00 -1.623278021812438965e+00 7.277359962463378906e-01 -1.596299931406974792e-02 -9.424399733543395996e-01 2.613499946892261505e-02 -1.677036046981811523e+00 -8.604540228843688965e-01 -1.407287955284118652e+00 -3.794699907302856445e-01 -1.161800026893615723e+00 1.648126006126403809e+00 8.527410030364990234e-01 -6.107490062713623047e-01 -1.704548954963684082e+00 2.417429983615875244e-01 1.680980026721954346e-01 2.270040065050125122e-01 1.728400029242038727e-02 -1.033159017562866211e+00 -3.363760113716125488e-01 1.491270065307617188e-01 5.413089990615844727e-01 -1.396726012229919434e+00 -2.620689868927001953e-01 1.224194049835205078e+00 1.420146942138671875e+00 4.564970135688781738e-01 -5.939180254936218262e-01 5.167900025844573975e-02 -7.123010158538818359e-01 -9.218810200691223145e-01 -8.860489726066589355e-01 2.161528110504150391e+00 1.091351032257080078e+00 -1.008220016956329346e-01 -5.507810115814208984e-01 -2.351340055465698242e-01 9.825900197029113770e-02 -7.236199826002120972e-02 -2.627669870853424072e-01 -1.340020000934600830e-01 -1.535550057888031006e-01 4.294419884681701660e-01 -8.454620242118835449e-01 8.366649746894836426e-01 7.841510176658630371e-01 4.644289910793304443e-01 4.044699966907501221e-01 -5.096979737281799316e-01 1.712470054626464844e-01 6.234329938888549805e-01 1.851294994354248047e+00 2.763339877128601074e-01 1.183845996856689453e+00 -8.048030138015747070e-01 -1.109210029244422913e-01 4.155749976634979248e-01 7.654139995574951172e-01 -4.327349960803985596e-01 -1.610700041055679321e-01 -5.206499993801116943e-02 3.431870043277740479e-01 1.008172035217285156e+00 6.242699921131134033e-02 7.640740275382995605e-01 4.670599997043609619e-01 4.402039945125579834e-01 9.148210287094116211e-01 -4.901370108127593994e-01 -3.612300008535385132e-02 1.304990053176879883e-01 2.739900052547454834e-01 8.020960092544555664e-01 2.799920141696929932e-01 4.724589884281158447e-01 -1.048720031976699829e-01 -5.949590206146240234e-01 -1.540078043937683105e+00 3.677399829030036926e-02 5.616199970245361328e-01 5.831840038299560547e-01 -2.074090957641601562e+00 -1.727633953094482422e+00 -2.616348981857299805e+00 3.759959936141967773e-01 3.170520067214965820e-01 -1.051517963409423828e+00 3.788160085678100586e-01 6.381539702415466309e-01 -4.138459861278533936e-01 3.433749973773956299e-01 3.720099851489067078e-02 7.839409708976745605e-01 1.930135011672973633e+00 -6.655570268630981445e-01 -1.465899944305419922e+00 -1.430143952369689941e+00 -9.107170104980468750e-01 -1.774210035800933838e-01 1.419424057006835938e+00 6.691280007362365723e-01 -4.368549883365631104e-01 -9.116610288619995117e-01 -1.640000031329691410e-03 1.398952960968017578e+00 1.601690053939819336e-01 9.846550226211547852e-01 1.820700019598007202e-01 -1.100990027189254761e-01 1.109876036643981934e+00 -1.338640004396438599e-01 -8.272129893302917480e-01 -3.894259929656982422e-01 -1.705289930105209351e-01 -1.967879980802536011e-01 1.312381982803344727e+00 -4.049740135669708252e-01 -3.115989863872528076e-01 -1.215216994285583496e+00 5.171920061111450195e-01 1.808164954185485840e+00 8.842800259590148926e-01 3.121849894523620605e-01 -2.672100067138671875e-01 3.740400075912475586e-02 2.696590125560760498e-01 -2.224400080740451813e-02 3.807699978351593018e-01 1.190094947814941406e+00 -4.386999830603599548e-02 6.063619852066040039e-01 6.590700149536132812e-02 -3.967339992523193359e-01 4.801560044288635254e-01 1.374652981758117676e+00 -3.656780123710632324e-01 -1.616670042276382446e-01 2.111150026321411133e-01 8.506289720535278320e-01 5.126150250434875488e-01 -1.640131950378417969e+00 4.699169993400573730e-01 -3.129250109195709229e-01 2.607100084424018860e-02 -2.371600084006786346e-02 -4.265260100364685059e-01 -2.290759980678558350e-01 -6.302530169486999512e-01 5.464569926261901855e-01 3.440780043601989746e-01 -7.617419958114624023e-01 -4.387679994106292725e-01 9.499769806861877441e-01 -6.111260056495666504e-01 2.375860065221786499e-01 -6.745470166206359863e-01 3.281069993972778320e-01 9.216629862785339355e-01 3.063620030879974365e-01 -1.214123964309692383e+00 -9.426479935646057129e-01 -8.411700129508972168e-01 -8.040599822998046875e-01 -4.563730061054229736e-01 -3.323679864406585693e-01 3.082279860973358154e-01 -1.221992015838623047e+00 -1.348119974136352539e+00 1.461681008338928223e+00 -1.405930995941162109e+00 5.968629717826843262e-01 -2.044129967689514160e-01 -3.517520129680633545e-01 -3.367170095443725586e-01 5.945169925689697266e-01 5.030789971351623535e-01 6.879040002822875977e-01 -1.158252000808715820e+00 -9.288480281829833984e-01 -7.894899845123291016e-01 -3.174700140953063965e-01 -6.224899888038635254e-01 -4.462180137634277344e-01 9.756199717521667480e-01 9.467170238494873047e-01 -8.030110001564025879e-01 -1.089700032025575638e-02 -6.326090097427368164e-01 3.480499982833862305e-02 -3.639680147171020508e-01 1.131863951683044434e+00 -8.043059706687927246e-01 1.354496955871582031e+00 6.419640183448791504e-01 -5.234299972653388977e-02 -5.801889896392822266e-01 4.605099931359291077e-02 4.422160089015960693e-01 9.594230055809020996e-01 -1.532726049423217773e+00 -1.065652012825012207e+00 -2.087820023298263550e-01 -3.309780061244964600e-01 4.229170083999633789e-01 -1.087049990892410278e-01 7.310349941253662109e-01 5.976430177688598633e-01 -5.550349950790405273e-01 3.650589883327484131e-01 3.781099915504455566e-01 3.545370101928710938e-01 -3.600960075855255127e-01 2.045010030269622803e-01 1.482028007507324219e+00 6.990680098533630371e-01 1.038620948791503906e+00 -4.880699887871742249e-02 5.247300118207931519e-02 4.671199917793273926e-01 -6.876900047063827515e-02 3.558480143547058105e-01 2.291219979524612427e-01 -2.795520126819610596e-01 -1.285696983337402344e+00 -8.580890297889709473e-01 -4.776560068130493164e-01 1.050700023770332336e-01 2.101880013942718506e-01 3.999580144882202148e-01 2.792200073599815369e-02 1.219000015407800674e-02 -1.547978043556213379e+00 -2.562890052795410156e-01 1.497702956199645996e+00 2.455230057239532471e-01 -6.143469810485839844e-01 -9.641619920730590820e-01 7.189999800175428391e-03 -7.185199856758117676e-02 -2.299119979143142700e-01 1.732890009880065918e-01 -1.379130035638809204e-01 -2.007939964532852173e-01 -6.097099930047988892e-02 4.403800070285797119e-01 2.115599960088729858e-01 -2.766329944133758545e-01 -1.079246997833251953e+00 6.725460290908813477e-01 -6.328179836273193359e-01 -5.880200266838073730e-01 -2.381480038166046143e-01 4.929139912128448486e-01 -1.410019993782043457e-01 2.307229936122894287e-01 4.242190122604370117e-01 -1.626809984445571899e-01 -2.257879972457885742e-01 -8.203229904174804688e-01 -1.463080048561096191e+00 1.003046035766601562e+00 6.451269984245300293e-01 2.450380027294158936e-01 2.188510000705718994e-01 -4.575009942054748535e-01 2.536180019378662109e-01 2.027429938316345215e-01 -1.162509992718696594e-01 -4.670200049877166748e-01 8.715400099754333496e-02 -1.034229993820190430e-01 -3.482100069522857666e-01 2.241930067539215088e-01 -6.392480134963989258e-01 -6.552230119705200195e-01 1.510480046272277832e-01 7.953339815139770508e-01 2.268379926681518555e-01 -2.804960012435913086e-01 4.882999882102012634e-02 5.716000199317932129e-01 -1.823238968849182129e+00 1.300860047340393066e-01 -6.008020043373107910e-01 5.914260149002075195e-01 -4.085699915885925293e-01 3.946009874343872070e-01 -6.615880131721496582e-01 -9.290599822998046875e-02 5.905849933624267578e-01 9.549099951982498169e-02 1.106150001287460327e-01 3.492589890956878662e-01 5.269359946250915527e-01 -7.791290283203125000e-01 -1.401443004608154297e+00 -6.105440258979797363e-01 -2.875399887561798096e-01 2.037910073995590210e-01 5.290169715881347656e-01 -1.746076941490173340e+00 1.088379994034767151e-01 -8.520399779081344604e-02 3.752099871635437012e-01 -1.588799990713596344e-02 3.278869986534118652e-01 1.191912055015563965e+00 -1.502059996128082275e-01 1.424050033092498779e-01 -2.716459929943084717e-01 3.863120079040527344e-01 9.383000433444976807e-03 -5.123999901115894318e-03 -4.331910014152526855e-01 -1.172806024551391602e+00 -2.855010032653808594e-01 1.583240032196044922e-01 1.099790036678314209e-01 3.745999932289123535e-02 -2.364670038223266602e-01 -3.100889921188354492e-01 3.643209934234619141e-01 5.971509814262390137e-01 -1.579719930887222290e-01 -1.022830963134765625e+00 -1.416512012481689453e+00 6.327009797096252441e-01 3.681739866733551025e-01 2.739399969577789307e-01 -4.020670056343078613e-01 6.263729929924011230e-01 2.735059857368469238e-01 4.767769873142242432e-01 -3.081009984016418457e-01 1.198040023446083069e-01 -8.619999862276017666e-04 3.699040114879608154e-01 1.634809970855712891e-01 2.414509952068328857e-01 9.614499658346176147e-02 -4.735220074653625488e-01 5.813570022583007812e-01 2.723399996757507324e-01 -6.926800310611724854e-02 -2.545059919357299805e-01 -3.536219894886016846e-01 1.784510016441345215e-01 4.753420054912567139e-01 3.466820120811462402e-01 3.963999915868043900e-03 -2.724899947643280029e-01 -3.448149859905242920e-01 -5.308650135993957520e-01 1.004644989967346191e+00 2.928319871425628662e-01 -1.923709958791732788e-01 -1.092818975448608398e+00 -1.692560017108917236e-01 1.998299919068813324e-02 -5.078729987144470215e-01 -5.243470072746276855e-01 -5.332869887351989746e-01 1.034399986267089844e+00 -4.945079982280731201e-01 6.552429795265197754e-01 2.391760051250457764e-01 -2.449899911880493164e-02 -7.530769705772399902e-01 1.204308032989501953e+00 1.300549954175949097e-01 5.547819733619689941e-01 -2.142120003700256348e-01 -2.158430069684982300e-01 -9.375969767570495605e-01 1.895440071821212769e-01 -1.014018058776855469e+00 1.001322031021118164e+00 1.554680019617080688e-01 3.113160133361816406e-01 1.397850036621093750e+00 -3.571389913558959961e-01 -3.089610040187835693e-01 -2.525269985198974609e-01 1.929810047149658203e-01 1.203642010688781738e+00 -4.797669947147369385e-01 1.174291014671325684e+00 -3.421210050582885742e-01 -1.131670027971267700e-01 3.483130037784576416e-01 -1.267285943031311035e+00 7.849410176277160645e-01 -5.962120294570922852e-01 1.363410055637359619e-01 1.923979967832565308e-01 9.492419958114624023e-01 -2.011699974536895752e-01 1.002033948898315430e+00 1.626189947128295898e-01 3.477970063686370850e-01 -1.002668976783752441e+00 -1.025668025016784668e+00 1.010600030422210693e-01 3.885900080204010010e-01 -1.292999982833862305e-01 -6.212100014090538025e-02 -1.273619979619979858e-01 2.236620038747787476e-01 -5.161520242691040039e-01 1.160060048103332520e+00 -1.996320039033889771e-01 3.280499875545501709e-01 -1.753090023994445801e-01 -1.470790058374404907e-01 5.604000017046928406e-02 -5.697119832038879395e-01 -4.662860035896301270e-01 -1.230396032333374023e+00 1.253589034080505371e+00 5.799509882926940918e-01 -1.376325011253356934e+00 -1.817699968814849854e-01 -4.672810137271881104e-01 -2.849690020084381104e-01 -5.393459796905517578e-01 4.764200001955032349e-02 3.478209972381591797e-01 -7.825580239295959473e-01 -9.397670030593872070e-01 -3.771469891071319580e-01 2.332639992237091064e-01 3.121599927544593811e-02 1.735599935054779053e-01 3.619169890880584717e-01 -2.512660026550292969e-01 3.334429860115051270e-01 1.238029971718788147e-01 5.054559707641601562e-01 8.888869881629943848e-01 -5.130900070071220398e-02 -1.209850013256072998e-01 -1.342560052871704102e-01 1.084982037544250488e+00 5.426020026206970215e-01 -7.012649774551391602e-01 -7.749680280685424805e-01 2.660959959030151367e-01 9.102460145950317383e-01 6.849060058593750000e-01 -1.728170067071914673e-01 -5.734450221061706543e-01 -1.591939926147460938e-01 -3.385919928550720215e-01 -6.730000022798776627e-03 3.812040090560913086e-01 -1.709859967231750488e-01 -1.367630064487457275e-01 -2.399480044841766357e-01 -2.092799916863441467e-02 2.751190066337585449e-01 1.086619973182678223e+00 -3.829720020294189453e-01 3.158500045537948608e-02 -4.619999963324517012e-04 -4.511489868164062500e-01 -1.132799964398145676e-02 -2.626680135726928711e-01 4.639799892902374268e-01 1.209959030151367188e+00 1.827729940414428711e-01 -4.113499820232391357e-02 2.026250064373016357e-01 1.653510034084320068e-01 1.119021058082580566e+00 -1.362746953964233398e+00 1.349545955657958984e+00 -3.215250074863433838e-01 1.704570055007934570e-01 9.281229972839355469e-01 -6.764999777078628540e-02 -1.128870964050292969e+00 6.734570264816284180e-01 -1.067131996154785156e+00 -9.164900332689285278e-02 1.252691984176635742e+00 -7.469400018453598022e-02 1.742218971252441406e+00 1.916719973087310791e-01 2.483000010251998901e-01 7.786030173301696777e-01 1.688076019287109375e+00 6.295769810676574707e-01 -2.626169919967651367e-01 -4.868040084838867188e-01 -2.227710038423538208e-01 -1.834372997283935547e+00 -3.121609985828399658e-01 -7.082470059394836426e-01 7.221239805221557617e-01 1.191156029701232910e+00 -5.178549885749816895e-01 2.216430008411407471e-01 1.998651981353759766e+00 -1.079542994499206543e+00 -9.491900354623794556e-02 -5.003359913825988770e-01 -4.346120059490203857e-01 9.020099788904190063e-02 -4.582250118255615234e-01 6.987900286912918091e-02 -4.627819955348968506e-01 9.150170087814331055e-01 3.360039889812469482e-01 2.848370075225830078e-01 -8.549919724464416504e-01 -4.734730124473571777e-01 -4.999620020389556885e-01 -6.605830192565917969e-01 -3.154520094394683838e-01 -1.386590003967285156e-01 -5.239620208740234375e-01 4.754410088062286377e-01 -1.439819931983947754e-01 1.927749961614608765e-01 2.565810084342956543e-01 6.052799895405769348e-02 4.208970069885253906e-01 -5.523599982261657715e-01 1.253800000995397568e-02 1.019589975476264954e-01 1.804070025682449341e-01 -1.127135992050170898e+00 -1.377571940422058105e+00 -5.929369926452636719e-01 -3.250420093536376953e-01 -2.610810101032257080e-01 -3.161050081253051758e-01 6.002999842166900635e-02 -3.844920098781585693e-01 -1.812893986701965332e+00 -3.850980103015899658e-01 -2.603110074996948242e-01 3.139829933643341064e-01 6.220949888229370117e-01 1.313579976558685303e-01 6.572099775075912476e-02 -7.227300107479095459e-02 -4.179480075836181641e-01 -4.877620041370391846e-01 -2.983300015330314636e-02 -4.490799829363822937e-02 8.645949959754943848e-01 3.913669884204864502e-01 -1.378600019961595535e-02 -8.063679933547973633e-01 -8.675079941749572754e-01 -4.234209954738616943e-01 3.818660080432891846e-01 -2.619990110397338867e-01 2.434750050306320190e-01 -3.875229954719543457e-01 -1.933420002460479736e-01 -6.833700090646743774e-02 4.362339973449707031e-01 2.728810012340545654e-01 -2.691699936985969543e-02 -7.908869981765747070e-01 -2.213380038738250732e-01 7.151599973440170288e-02 -5.553100109100341797e-01 1.536120027303695679e-01 1.353839933872222900e-01 -7.320199906826019287e-02 -4.430370032787322998e-01 -1.465023040771484375e+00 -1.404069960117340088e-01 1.515830010175704956e-01 9.531100094318389893e-02 9.680200219154357910e-01 9.066089987754821777e-01 -2.135257005691528320e+00 3.039950132369995117e-01 1.704500056803226471e-02 5.149229764938354492e-01 -3.527800142765045166e-01 -7.636899948120117188e-01 6.174299865961074829e-02 7.857800275087356567e-02 5.440999940037727356e-02 4.696799814701080322e-02 -6.285279989242553711e-01 1.108549982309341431e-01 3.571270108222961426e-01 -1.517518043518066406e+00 -9.287160038948059082e-01 -2.402510046958923340e-01 -8.704919815063476562e-01 -4.195280075073242188e-01 2.050279974937438965e-01 3.232739865779876709e-01 1.744000054895877838e-02 -1.044000033289194107e-02 4.119319915771484375e-01 9.029900282621383667e-02 -7.668759822845458984e-01 -3.056170046329498291e-01 -1.293830990791320801e+00 -7.088090181350708008e-01 9.093400090932846069e-02 -8.161979913711547852e-01 7.139800190925598145e-01 -3.820610046386718750e-01 1.089200004935264587e-02 -9.521809816360473633e-01 5.999280214309692383e-01 -3.541519939899444580e-01 1.024710014462471008e-01 5.264959931373596191e-01