# 571000 LAMMPS data file written by OVITO
288 atoms
2 atom types
-2.5575081683519851e-01 1.5263282916835120e+01 xlo xhi
-2.2148560615007273e-01 1.3218325206150862e+01 ylo yhi
-2.4041539330559214e-01 1.4348060393306469e+01 zlo zhi

Atoms # atomic

7 1 1.55193 4.50298 2.64959 
97 2 1.35393 3.53131 2.79958 
109 2 1.90936 4.57265 1.76188 
4 1 2.6687 4.52748 0.0631578 
8 1 2.29523 12.7973 2.96892 
119 2 6.76605 1.65217 0.873543 
57 1 5.81745 2.01189 2.5172 
6 1 6.82375 1.79318 -0.143541 
118 2 6.26682 1.07518 14.1487 
219 2 6.78146 2.03522 2.89048 
104 2 5.40936 1.36305 3.07679 
120 2 8.06611 2.21405 13.6176 
227 2 9.79782 3.54762 14.3376 
182 2 9.65742 0.329543 0.791062 
56 1 10.0858 0.284594 2.6271 
217 2 8.74163 2.90049 3.49526 
163 2 9.11888 0.824087 14.0124 
29 1 9.47573 0.0729079 -0.0758487 
99 2 14.9515 2.02707 2.9598 
126 2 13.9376 1.83167 1.72181 
9 1 14.0058 2.0133 2.71095 
54 1 14.3328 1.99654 0.16327 
105 2 13.3146 3.40086 3.48038 
107 2 11.9623 4.23476 3.61565 
125 2 13.1446 0.653229 3.49627 
186 2 3.33335 8.8447 -0.216681 
111 2 2.2251 5.30747 14.2644 
30 1 2.40819 8.85219 0.112373 
185 2 2.51065 8.90037 1.06962 
121 2 1.12822 5.72068 3.44571 
165 2 1.7049 7.39355 13.7207 
113 2 0.468833 6.50053 14.0673 
231 2 6.29915 6.19204 2.08017 
80 1 6.17962 6.27334 3.02601 
53 1 6.42234 6.41239 0.215645 
167 2 5.98505 5.57903 -0.0172334 
122 2 3.54889 4.36502 3.50388 
225 2 5.51131 5.57797 3.20504 
55 1 10.1425 4.19359 3.01971 
226 2 10.1546 4.1694 2.05254 
52 1 10.1345 4.24915 0.353552 
235 2 9.93698 5.10296 3.3202 
33 1 9.85095 8.94862 2.95719 
189 2 9.99079 9.16827 1.98047 
78 1 10.1152 9.33652 0.209599 
214 2 11.0279 9.41591 -0.0531422 
114 2 14.067 6.5036 0.916564 
5 1 14.3012 6.55884 -0.0151526 
32 1 13.7639 6.56868 2.79262 
116 2 13.9198 5.78236 14.1536 
77 1 2.53791 0.00678464 0.366558 
81 1 2.46335 8.84395 2.94164 
124 2 2.41651 12.9034 1.99402 
271 2 6.40019 10.7829 1.15158 
79 1 6.26335 11.0791 2.79565 
76 1 6.20809 10.7741 0.208518 
265 2 5.93983 10.2313 3.18472 
222 2 5.75548 11.8538 2.9717 
221 2 10.9416 0.172702 3.23457 
276 2 9.54535 10.0063 14.2814 
236 2 9.52978 12.9429 2.8658 
175 2 9.06243 10.4173 3.86632 
274 2 7.0445 10.8066 14.2774 
183 2 8.87209 12.2202 13.6535 
181 2 14.9968 11.2577 -0.0057948 
178 2 13.8457 11.0241 1.07823 
31 1 13.4748 11.1371 3.07344 
28 1 14.0655 10.9999 0.128573 
169 2 12.9112 10.4022 3.34459 
179 2 13.5372 9.65436 14.0722 
98 2 1.5695 1.11913 2.99532 
1 1 1.22362 1.91557 3.45323 
100 2 1.13626 1.75252 4.42598 
89 1 0.926058 1.79616 6.10386 
224 2 4.74164 3.38866 3.48972 
278 2 4.8837 0.606285 6.83347 
103 2 4.77006 13.148 4.92109 
101 2 3.85921 13.0406 3.69983 
2 1 4.76417 -0.105039 3.91385 
135 2 5.23767 2.80901 7.20531 
218 2 9.16068 1.30283 3.44615 
49 1 8.43879 2.01263 3.73357 
220 2 8.32708 2.07257 5.37904 
58 1 8.44497 2.008 6.39929 
155 2 7.49766 2.04384 6.71503 
238 2 9.2449 3.61535 7.18798 
244 2 10.6871 4.43824 7.11935 
154 2 13.099 0.459722 6.85776 
3 1 12.9457 4.23264 3.76427 
60 1 12.3814 4.22486 6.50352 
108 2 12.9149 4.35193 5.69995 
245 2 12.7892 3.4645 6.84909 
174 2 1.94848 8.04489 3.13864 
26 1 0.809518 6.69706 3.68655 
132 2 0.916157 6.8091 4.65759 
11 1 1.05476 6.6507 6.51125 
130 2 1.4276 5.82375 6.79528 
131 2 0.198659 6.66764 7.0047 
51 1 4.43576 4.24688 3.82051 
12 1 4.41393 4.22376 6.50025 
136 2 4.4219 4.33892 5.54858 
266 2 5.5388 8.00345 3.41493 
137 2 5.00085 4.89927 6.84537 
256 2 5.49247 7.44726 7.22555 
241 2 6.71621 6.51549 7.2117 
269 2 7.89521 6.54566 3.71616 
188 2 9.16442 7.49857 3.76033 
74 1 8.80948 6.65581 4.10122 
59 1 8.68128 6.62431 6.75077 
242 2 8.68658 6.79687 5.78842 
240 2 8.85679 5.70408 6.9628 
243 2 9.76978 7.76968 7.3771 
173 2 14.6412 6.63897 3.24571 
170 2 12.9418 8.05045 3.44968 
106 2 13.3962 5.72507 3.10859 
172 2 12.7226 8.61816 4.91895 
151 2 13.1217 7.5706 7.27321 
25 1 12.601 8.84594 3.92842 
153 2 13.3362 5.5609 7.49271 
267 2 4.11011 8.81485 3.49932 
270 2 1.79761 9.56192 3.05972 
123 2 1.59685 12.0734 3.09351 
187 2 14.972 10.9772 3.2356 
75 1 0.423281 11.0436 3.43146 
196 2 0.57237 10.9721 4.40853 
36 1 0.865148 10.9799 6.17757 
194 2 -0.0562811 10.8038 6.45928 
73 1 5.05058 8.75425 3.81955 
83 1 4.55284 13.0925 6.68052 
82 1 4.85058 8.7214 6.68523 
268 2 4.83784 8.66149 5.70225 
279 2 5.22513 12.4105 6.86761 
280 2 7.02037 11.0497 7.53126 
277 2 5.7282 10.1002 7.47102 
171 2 10.7382 9.00646 3.42767 
176 2 7.88407 11.3075 3.80989 
27 1 8.68714 11.1958 4.35652 
177 2 8.80826 11.029 6.04401 
84 1 8.76414 10.834 7.04236 
208 2 9.37669 11.5428 7.37957 
281 2 9.67524 9.36912 7.303 
193 2 11.6339 13.1696 6.74374 
35 1 12.6432 13.1578 6.43931 
102 2 13.0366 11.9879 3.3612 
50 1 12.4877 0.0215503 3.81033 
223 2 12.6041 0.00843678 4.81369 
34 1 12.7169 8.33933 6.6591 
192 2 13.3805 11.3032 6.9869 
239 2 1.26463 2.58825 6.56878 
261 2 1.18869 0.964055 6.54828 
150 2 1.75824 4.02226 8.23458 
19 1 2.36255 3.99265 10.1599 
16 1 1.85542 4.09088 7.24784 
134 2 2.82651 4.19536 6.99894 
138 2 1.70103 2.62993 10.7891 
18 1 5.59943 1.97652 7.50812 
156 2 5.66063 2.0593 8.54507 
69 1 6.04308 2.0882 10.0979 
248 2 7.02229 1.82666 10.2031 
253 2 5.87002 2.99245 10.5182 
128 2 9.66033 0.542976 7.15476 
160 2 10.1835 13.1856 8.43309 
68 1 10.3267 13.0662 10.003 
258 2 14.8275 1.97953 6.99621 
66 1 13.9673 1.79659 7.4576 
162 2 14.1895 1.92739 8.47962 
21 1 14.3226 1.75173 10.2587 
146 2 13.6943 2.41756 10.5806 
140 2 15.1785 1.98444 10.648 
133 2 2.01952 8.47572 6.85666 
158 2 3.31967 3.9853 10.5122 
157 2 2.18406 4.91048 10.4903 
93 1 2.43421 8.76703 10.1165 
42 1 2.52413 9.14151 7.38488 
284 2 2.4373 8.77126 9.1562 
209 2 3.98098 8.98449 7.05229 
65 1 5.77077 6.55424 7.5232 
257 2 6.18298 6.63162 9.24671 
92 1 6.35771 6.59357 10.1815 
286 2 7.38211 6.43925 10.4115 
67 1 10.1253 4.35373 10.1916 
64 1 9.77608 4.40568 7.49899 
255 2 9.90392 4.56488 9.26054 
259 2 9.73241 5.16285 10.7101 
212 2 9.67558 7.41737 10.8954 
17 1 13.928 6.3228 7.86475 
152 2 14.0325 6.20244 8.85056 
44 1 14.2398 5.97894 10.5605 
199 2 13.8331 6.82283 10.8952 
202 2 15.2113 6.02764 10.4686 
147 2 13.2717 4.57939 10.943 
197 2 1.19697 11.7183 6.78174 
195 2 1.96373 9.93753 7.20454 
127 2 2.94021 12.8702 7.30361 
129 2 1.92191 12.8026 8.5813 
20 1 2.28819 13.0275 10.3153 
10 1 1.99564 12.9044 7.60781 
210 2 1.86286 9.42421 10.5243 
88 1 6.04201 11.025 7.65676 
288 2 6.26072 11.1203 9.50383 
91 1 6.28409 10.9564 10.4595 
251 2 5.73655 10.1133 10.5482 
283 2 4.29656 8.48511 10.7855 
145 2 5.19367 12.2473 10.8357 
250 2 11.2753 13.1266 10.3644 
41 1 10.1197 13.2009 7.4317 
90 1 10.2113 8.62967 7.61417 
213 2 10.3763 8.66999 9.26797 
45 1 10.5746 8.55456 10.1889 
200 2 11.5784 8.55691 10.2919 
260 2 10.0285 12.1576 10.1665 
191 2 11.8063 8.47903 7.012 
190 2 13.707 9.75402 7.02884 
40 1 14.0259 10.6616 7.29229 
207 2 13.9442 11.1411 9.31502 
43 1 14.0827 10.9592 10.2388 
198 2 13.5177 9.25279 10.943 
237 2 2.23701 0.872126 0.0871975 
110 2 2.14905 3.72766 -0.182813 
139 2 1.72341 1.09797 11.0654 
13 1 1.29957 1.95316 11.3658 
22 1 1.34072 2.44844 14.0035 
141 2 1.3242 2.19616 13.0618 
117 2 5.77467 3.46931 14.2242 
143 2 5.27348 0.427545 10.7453 
112 2 4.28848 4.34328 14.1331 
95 1 4.93975 -0.111643 13.8622 
273 2 4.82474 -0.116645 12.91 
168 2 5.09917 4.43011 12.1471 
63 1 5.00131 4.43632 11.1827 
246 2 9.30936 2.98161 10.5637 
247 2 9.59226 1.41475 10.549 
61 1 8.86392 2.07461 10.6592 
70 1 8.9813 2.25785 13.2999 
249 2 8.89819 2.06403 12.3128 
164 2 0.449601 2.30034 -0.191312 
233 2 13.807 2.80647 -0.118517 
234 2 14.0567 1.27833 14.1996 
161 2 13.4874 0.414253 10.8239 
62 1 12.7713 13.197 11.1059 
229 2 11.9664 4.06621 14.3407 
72 1 12.897 4.14202 13.9768 
203 2 1.86335 7.24978 10.5096 
38 1 1.43082 6.40313 10.807 
23 1 1.32097 6.52218 13.5264 
166 2 1.43081 6.51628 11.8205 
232 2 5.83597 7.1351 -0.0429075 
282 2 5.80073 7.97005 10.6265 
24 1 5.2955 4.28532 13.9335 
254 2 5.34574 5.19982 10.7267 
228 2 9.94069 5.09743 -0.0415129 
230 2 8.03995 6.54092 14.3632 
263 2 9.2588 7.39536 14.1675 
86 1 9.09103 6.64482 11.1831 
71 1 8.95715 6.51658 13.993 
264 2 9.16864 6.6013 12.1677 
148 2 11.8171 3.98555 10.7507 
115 2 13.2904 8.12895 14.2443 
149 2 12.6902 4.16048 13.0181 
15 1 12.6861 3.86538 11.2113 
46 1 12.8124 8.99608 13.9016 
262 2 3.44686 -0.0699257 0.141151 
142 2 3.25038 12.8942 10.4181 
159 2 1.81447 12.3341 10.8584 
287 2 0.1737 10.8061 10.9664 
215 2 1.76638 12.1005 14.2315 
87 1 1.1063 10.6858 11.3242 
184 2 1.74262 10.5495 14.2883 
48 1 1.20215 11.322 14.0216 
216 2 1.0899 10.7645 12.2612 
272 2 5.58546 9.31562 -0.22283 
14 1 4.81381 13.1007 11.0902 
285 2 5.35374 8.43774 13.0883 
94 1 5.19248 8.47917 14.0015 
85 1 5.19335 8.5357 11.2134 
275 2 5.34173 12.498 14.1389 
205 2 8.1232 10.4713 10.6761 
204 2 9.62563 9.8716 10.7812 
39 1 9.07984 10.7288 10.9515 
96 1 8.53473 11.2372 13.4926 
206 2 8.85979 11.0304 12.5197 
211 2 13.5811 11.6704 10.6476 
144 2 11.7696 -0.21549 14.2442 
47 1 12.703 -0.117147 14.0003 
252 2 12.8065 -0.229661 12.0812 
37 1 13.1219 8.46163 11.2785 
201 2 12.9442 8.63643 12.2553 
180 2 13.038 12.393 14.0783 