
     Program PWSCF v.5.4.0 starts on 22Sep2019 at 18:40:13 

     This program is part of the open-source Quantum ESPRESSO suite
     for quantum simulation of materials; please cite
         "P. Giannozzi et al., J. Phys.:Condens. Matter 21 395502 (2009);
          URL http://www.quantum-espresso.org", 
     in publications or presentations arising from this work. More details at
     http://www.quantum-espresso.org/quote

           HOST :    @host@
           ARCH :    
             CC :    cc
            CPP :    cpp
            F90 :    mpif90
            F77 :    gfortran
         DFLAGS :    -D__GFORTRAN -D__STD_F95 -D__FFTW3 -D__MPI -D__PARA
      BLAS LIBS :    -lopenblas
    LAPACK LIBS :    -lopenblas
       FFT LIBS :    -lfftw3
      MASS LIBS :    

     Parallel version (MPI), running on    28 processors
     R & G space division:  proc/nbgrp/npool/nimage =      28
     Waiting for input...
     Reading input from standard input
Warning: card &IONS ignored
Warning: card / ignored
Warning: card &CELL ignored
Warning: card / ignored

     Current dimensions of program PWSCF are:
     Max number of different atomic species (ntypx) = 10
     Max number of k-points (npk) =  40000
     Max angular momentum in pseudopotentials (lmaxx) =  3

     IMPORTANT: XC functional enforced from input :
     Exchange-correlation      = PBE ( 1  4  3  4 0 0)
     Any further DFT definition will be discarded
     Please, verify this is what you really want


     gamma-point specific algorithms are used

     Subspace diagonalization in iterative solution of the eigenvalue problem:
     a serial algorithm will be used


     Parallelization info
     --------------------
     sticks:   dense  smooth     PW     G-vecs:    dense   smooth      PW
     Min         445     445    110                37558    37558    4694
     Max         448     448    112                37564    37564    4708
     Sum       12517   12517   3125              1051747  1051747  131683
     Tot        6259    6259   1563



     bravais-lattice index     =            1
     lattice parameter (alat)  =      18.8973  a.u.
     unit-cell volume          =    6748.3346 (a.u.)^3
     number of atoms/cell      =            5
     number of atomic types    =            2
     number of electrons       =         8.00
     number of Kohn-Sham states=            4
     kinetic-energy cutoff     =     110.0000  Ry
     charge density cutoff     =     440.0000  Ry
     convergence threshold     =      1.0E-06
     mixing beta               =       0.5000
     number of iterations used =            8  plain     mixing
     Exchange-correlation      = PBE ( 1  4  3  4 0 0)

     celldm(1)=  18.897261  celldm(2)=   0.000000  celldm(3)=   0.000000
     celldm(4)=   0.000000  celldm(5)=   0.000000  celldm(6)=   0.000000

     crystal axes: (cart. coord. in units of alat)
               a(1) = (   1.000000   0.000000   0.000000 )  
               a(2) = (   0.000000   1.000000   0.000000 )  
               a(3) = (   0.000000   0.000000   1.000000 )  

     reciprocal axes: (cart. coord. in units 2 pi/alat)
               b(1) = (  1.000000  0.000000  0.000000 )  
               b(2) = (  0.000000  1.000000  0.000000 )  
               b(3) = (  0.000000  0.000000  1.000000 )  


     PseudoPot. # 1 for  H read from file:
     ../pseudo/H.tm.pbe.UPF
     MD5 check sum: 4b614d66af87240b7a5107bfa527a767
     Pseudo is Norm-conserving, Zval =  1.0
     Generated using "atomic" code by A. Dal Corso  v.5.2.0
     Using radial grid of  929 points,  0 beta functions with: 

     PseudoPot. # 2 for  C read from file:
     ../pseudo/C.tm.pbe.UPF
     MD5 check sum: a4f27fcb9b24331b00ace8e732a7e062
     Pseudo is Norm-conserving, Zval =  4.0
     Generated using "atomic" code by A. Dal Corso  v.5.2.0
     Using radial grid of 1073 points,  1 beta functions with: 
                l(1) =   1

     atomic species   valence    mass     pseudopotential
        H              1.00     1.00000      H( 1.00)
        C              4.00     1.00000      C( 1.00)

     No symmetry found



   Cartesian axes

     site n.     atom                  positions (alat units)
         1           H   tau(   1) = (   0.5438640   0.4129030   0.3509780  )
         2           H   tau(   2) = (   0.4022680   0.4902940   0.4368060  )
         3           H   tau(   3) = (   0.5700930   0.5684500   0.4430400  )
         4           H   tau(   4) = (   0.5347940   0.4157230   0.5288540  )
         5           C   tau(   5) = (   0.5131750   0.4694940   0.4385180  )

     number of k points=     1
                       cart. coord. in units 2pi/alat
        k(    1) = (   0.0000000   0.0000000   0.0000000), wk =   2.0000000

     Dense  grid:   525874 G-vectors     FFT dimensions: ( 128, 128, 128)

     Largest allocated arrays     est. size (Mb)     dimensions
        Kohn-Sham Wavefunctions         0.14 Mb     (    2354,    4)
        NL pseudopotentials             0.11 Mb     (    2354,    3)
        Each V/rho on FFT grid          1.25 Mb     (   81920)
        Each G-vector array             0.14 Mb     (   18782)
        G-vector shells                 0.02 Mb     (    2785)
     Largest temporary arrays     est. size (Mb)     dimensions
        Auxiliary wavefunctions         0.29 Mb     (    2354,   16)
        Each subspace H/S matrix        0.00 Mb     (      16,   16)
        Each <psi_i|beta_j> matrix      0.00 Mb     (       3,    4)
        Arrays for rho mixing          10.00 Mb     (   81920,    8)

     Initial potential from superposition of free atoms
     Check: negative starting charge=   -0.000380

     starting charge    7.99992, renormalised to    8.00000

     negative rho (up, down):  3.802E-04 0.000E+00
     Starting wfc are    8 randomized atomic wfcs

     total cpu time spent up to now is        2.8 secs

     per-process dynamical memory:   430.8 Mb

     Self-consistent Calculation

     iteration #  1     ecut=   110.00 Ry     beta=0.50
     Davidson diagonalization with overlap
     ethr =  1.00E-02,  avg # of iterations =  2.0

     negative rho (up, down):  1.798E-04 0.000E+00

     total cpu time spent up to now is        3.4 secs

     total energy              =     -16.01982903 Ry
     Harris-Foulkes estimate   =     -16.39683956 Ry
     estimated scf accuracy    <       0.67040648 Ry

     iteration #  2     ecut=   110.00 Ry     beta=0.50
     Davidson diagonalization with overlap
     ethr =  8.38E-03,  avg # of iterations =  2.0

     negative rho (up, down):  9.492E-05 0.000E+00

     total cpu time spent up to now is        3.9 secs

     total energy              =     -16.14969166 Ry
     Harris-Foulkes estimate   =     -16.16960303 Ry
     estimated scf accuracy    <       0.05147708 Ry

     iteration #  3     ecut=   110.00 Ry     beta=0.50
     Davidson diagonalization with overlap
     ethr =  6.43E-04,  avg # of iterations =  1.0

     negative rho (up, down):  5.395E-06 0.000E+00

     total cpu time spent up to now is        4.3 secs

     total energy              =     -16.14819756 Ry
     Harris-Foulkes estimate   =     -16.15372789 Ry
     estimated scf accuracy    <       0.01163801 Ry

     iteration #  4     ecut=   110.00 Ry     beta=0.50
     Davidson diagonalization with overlap
     ethr =  1.45E-04,  avg # of iterations =  3.0

     negative rho (up, down):  4.889E-06 0.000E+00

     total cpu time spent up to now is        4.9 secs

     total energy              =     -16.15011113 Ry
     Harris-Foulkes estimate   =     -16.15269905 Ry
     estimated scf accuracy    <       0.00597642 Ry

     iteration #  5     ecut=   110.00 Ry     beta=0.50
     Davidson diagonalization with overlap
     ethr =  7.47E-05,  avg # of iterations =  2.0

     negative rho (up, down):  2.465E-06 0.000E+00

     total cpu time spent up to now is        5.5 secs

     total energy              =     -16.15067527 Ry
     Harris-Foulkes estimate   =     -16.15073829 Ry
     estimated scf accuracy    <       0.00016839 Ry

     iteration #  6     ecut=   110.00 Ry     beta=0.50
     Davidson diagonalization with overlap
     ethr =  2.10E-06,  avg # of iterations =  3.0

     negative rho (up, down):  2.855E-07 0.000E+00

     total cpu time spent up to now is        6.1 secs

     total energy              =     -16.15073856 Ry
     Harris-Foulkes estimate   =     -16.15073869 Ry
     estimated scf accuracy    <       0.00000843 Ry

     iteration #  7     ecut=   110.00 Ry     beta=0.50
     Davidson diagonalization with overlap
     ethr =  1.05E-07,  avg # of iterations =  3.0

     total cpu time spent up to now is        6.6 secs

     total energy              =     -16.15073966 Ry
     Harris-Foulkes estimate   =     -16.15074292 Ry
     estimated scf accuracy    <       0.00000682 Ry

     iteration #  8     ecut=   110.00 Ry     beta=0.50
     Davidson diagonalization with overlap
     ethr =  8.52E-08,  avg # of iterations =  2.0

     total cpu time spent up to now is        7.1 secs

     End of self-consistent calculation

          k = 0.0000 0.0000 0.0000 ( 65842 PWs)   bands (ev):

   -16.7544  -9.4326  -9.1430  -9.0506

     highest occupied level (ev):    -9.0506

!    total energy              =     -16.15074036 Ry
     Harris-Foulkes estimate   =     -16.15074048 Ry
     estimated scf accuracy    <       0.00000028 Ry

     The total energy is the sum of the following terms:

     one-electron contribution =     -39.89382113 Ry
     hartree contribution      =      20.76909944 Ry
     xc contribution           =      -6.31286158 Ry
     ewald contribution        =       9.28684291 Ry

     convergence has been achieved in   8 iterations

     Forces acting on atoms (Ry/au):

     atom    1 type  1   force =     0.00110476   -0.00507919   -0.00840787
     atom    2 type  1   force =     0.03661485   -0.00489916   -0.00547128
     atom    3 type  1   force =    -0.02678136   -0.04168935   -0.00633037
     atom    4 type  1   force =     0.00862258   -0.01988007    0.02355937
     atom    5 type  2   force =    -0.01956083    0.07154777   -0.00334985

     Total force =     0.102592     Total SCF correction =     0.000646


     entering subroutine stress ...

          total   stress  (Ry/bohr**3)                   (kbar)     P=   -1.01
  -0.00001686  -0.00000676   0.00000139         -2.48     -0.99      0.20
  -0.00000676  -0.00000990  -0.00000429         -0.99     -1.46     -0.63
   0.00000139  -0.00000429   0.00000614          0.20     -0.63      0.90


     init_run     :      2.41s CPU      2.42s WALL (       1 calls)
     electrons    :      4.25s CPU      4.34s WALL (       1 calls)
     forces       :      0.90s CPU      0.90s WALL (       1 calls)
     stress       :      1.12s CPU      1.12s WALL (       1 calls)

     Called by init_run:
     wfcinit      :      0.10s CPU      0.10s WALL (       1 calls)
     potinit      :      0.96s CPU      0.97s WALL (       1 calls)

     Called by electrons:
     c_bands      :      2.05s CPU      2.08s WALL (       8 calls)
     sum_band     :      0.41s CPU      0.43s WALL (       8 calls)
     v_of_rho     :      1.78s CPU      1.81s WALL (       9 calls)
     mix_rho      :      0.20s CPU      0.21s WALL (       8 calls)

     Called by c_bands:
     init_us_2    :      0.04s CPU      0.04s WALL (      17 calls)
     regterg      :      2.02s CPU      2.04s WALL (       8 calls)

     Called by sum_band:

     Called by *egterg:
     h_psi        :      2.05s CPU      2.08s WALL (      27 calls)
     g_psi        :      0.01s CPU      0.01s WALL (      18 calls)
     rdiaghg      :      0.00s CPU      0.00s WALL (      26 calls)

     Called by h_psi:
     add_vuspsi   :      0.00s CPU      0.00s WALL (      27 calls)

     General routines
     calbec       :      0.95s CPU      0.96s WALL (      32 calls)
     fft          :      1.70s CPU      1.74s WALL (     106 calls)
     fftw         :      1.10s CPU      1.14s WALL (     118 calls)

     Parallel routines
     fft_scatter  :      1.09s CPU      1.14s WALL (     224 calls)

     PWSCF        :     9.03s CPU         9.18s WALL


   This run was terminated on:  18:40:22  22Sep2019            

=------------------------------------------------------------------------------=
   JOB DONE.
=------------------------------------------------------------------------------=
