 running on   32 total cores
 distrk:  each k-point on   32 cores,    1 groups
 distr:  one band on   16 cores,    2 groups
 using from now: INCAR     
 vasp.5.4.4.18Apr17-6-g9f103f2a35 (build Nov 25 2019 16:34:31) complex          
  
 POSCAR found type information on POSCAR  O  H 
 POSCAR found :  2 types and       6 ions
 scaLAPACK will be used

 ----------------------------------------------------------------------------- 
|                                                                             |
|           W    W    AA    RRRRR   N    N  II  N    N   GGGG   !!!           |
|           W    W   A  A   R    R  NN   N  II  NN   N  G    G  !!!           |
|           W    W  A    A  R    R  N N  N  II  N N  N  G       !!!           |
|           W WW W  AAAAAA  RRRRR   N  N N  II  N  N N  G  GGG   !            |
|           WW  WW  A    A  R   R   N   NN  II  N   NN  G    G                |
|           W    W  A    A  R    R  N    N  II  N    N   GGGG   !!!           |
|                                                                             |
|      For optimal performance we recommend to set                            |
|        NCORE= 4 - approx SQRT( number of cores)                             |
|      NCORE specifies how many cores store one orbital (NPAR=cpu/NCORE).     |
|      This setting can  greatly improve the performance of VASP for DFT.     |
|      The default,   NCORE=1            might be grossly inefficient         |
|      on modern multi-core architectures or massively parallel machines.     |
|      Do your own testing !!!!                                               |
|      Unfortunately you need to use the default for GW and RPA calculations. |
|      (for HF NCORE is supported but not extensively tested yet)             |
|                                                                             |
 ----------------------------------------------------------------------------- 

 LDA part: xc-table for Pade appr. of Perdew
 generate k-points for:    1    2    2
 POSCAR, INCAR and KPOINTS ok, starting setup
 FFT: planning ...
 WAVECAR not read
 WARNING: random wavefunctions but no delay for mixing, default for NELMDL
 entering main loop
       N       E                     dE             d eps       ncg     rms          rms(c)
DAV:   1     0.137878536374E+03    0.13788E+03   -0.49013E+03    72   0.142E+03
DAV:   2     0.503912483556E+02   -0.87487E+02   -0.85432E+02    72   0.159E+02
DAV:   3    -0.167416603634E+02   -0.67133E+02   -0.63385E+02    88   0.125E+02
DAV:   4    -0.315963133793E+02   -0.14855E+02   -0.14765E+02    72   0.654E+01
DAV:   5    -0.320633963440E+02   -0.46708E+00   -0.46687E+00    72   0.135E+01    0.179E+01
RMM:   6    -0.288537982095E+02    0.32096E+01   -0.12186E+01    64   0.254E+01    0.176E+01
RMM:   7    -0.287848418796E+02    0.68956E-01   -0.11803E+00    76   0.550E+00    0.156E+01
RMM:   8    -0.295054543541E+02   -0.72061E+00   -0.61682E+00    64   0.210E+01    0.117E+01
RMM:   9    -0.285347282263E+02    0.97073E+00   -0.22457E+00    64   0.111E+01    0.429E+00
RMM:  10    -0.285353747792E+02   -0.64655E-03   -0.22500E-01    76   0.277E+00    0.175E+00
RMM:  11    -0.285225874270E+02    0.12787E-01   -0.27003E-02    64   0.870E-01    0.742E-01
RMM:  12    -0.285192278157E+02    0.33596E-02   -0.72519E-02    60   0.156E+00    0.106E+00
RMM:  13    -0.285217693197E+02   -0.25415E-02   -0.92966E-03    74   0.481E-01    0.902E-01
RMM:  14    -0.285236062010E+02   -0.18369E-02   -0.71004E-04    60   0.170E-01    0.745E-01
RMM:  15    -0.285248722178E+02   -0.12660E-02   -0.14676E-02    60   0.881E-01    0.120E-01
RMM:  16    -0.285258002155E+02   -0.92800E-03   -0.21740E-03    70   0.316E-01    0.267E-01
RMM:  17    -0.285276892366E+02   -0.18890E-02   -0.18118E-03    56   0.251E-01    0.379E-01
RMM:  18    -0.285279209388E+02   -0.23170E-03   -0.69307E-04    68   0.128E-01    0.247E-01
RMM:  19    -0.285274887860E+02    0.43215E-03   -0.60577E-03    60   0.494E-01    0.203E-01
RMM:  20    -0.285269243303E+02    0.56446E-03   -0.58442E-04    66   0.119E-01    0.136E-01
RMM:  21    -0.285260523461E+02    0.87198E-03   -0.32271E-04    64   0.100E-01    0.136E-01
RMM:  22    -0.285261885808E+02   -0.13623E-03   -0.29496E-04    68   0.938E-02    0.199E-01
RMM:  23    -0.285256016194E+02    0.58696E-03   -0.93862E-04    62   0.193E-01    0.159E-01
RMM:  24    -0.285260307849E+02   -0.42917E-03   -0.27636E-03    62   0.319E-01    0.214E-01
RMM:  25    -0.285265337957E+02   -0.50301E-03   -0.24712E-04    63   0.781E-02    0.284E-01
RMM:  26    -0.285267611697E+02   -0.22737E-03   -0.41735E-04    56   0.133E-01    0.102E-01
RMM:  27    -0.285276527469E+02   -0.89158E-03   -0.53073E-04    65   0.130E-01    0.128E-02
RMM:  28    -0.285285033465E+02   -0.85060E-03   -0.21137E-04    58   0.769E-02    0.712E-02
RMM:  29    -0.285287686501E+02   -0.26530E-03   -0.27273E-05    62   0.374E-02    0.433E-02
RMM:  30    -0.285290939256E+02   -0.32528E-03   -0.22379E-05    72   0.261E-02    0.204E-02
RMM:  31    -0.285292019128E+02   -0.10799E-03   -0.52098E-06    67   0.109E-02    0.118E-02
RMM:  32    -0.285292592526E+02   -0.57340E-04   -0.72305E-06    62   0.158E-02    0.146E-03
RMM:  33    -0.285292784556E+02   -0.19203E-04   -0.31341E-06    74   0.932E-03    0.650E-03
RMM:  34    -0.285292843225E+02   -0.58669E-05   -0.84740E-08    62   0.171E-03    0.670E-03
RMM:  35    -0.285292907236E+02   -0.64011E-05   -0.67482E-07    60   0.493E-03    0.228E-03
RMM:  36    -0.285292917735E+02   -0.10499E-05   -0.12295E-07    60   0.173E-03    0.170E-03
RMM:  37    -0.285292934627E+02   -0.16891E-05   -0.11104E-07    64   0.182E-03    0.345E-04
RMM:  38    -0.285292937164E+02   -0.25376E-06   -0.96361E-09    46   0.694E-04    0.721E-04
RMM:  39    -0.285292941028E+02   -0.38636E-06   -0.15126E-08    44   0.786E-04    0.866E-04
RMM:  40    -0.285292941764E+02   -0.73655E-07   -0.83140E-09    44   0.512E-04    0.649E-04
RMM:  41    -0.285292944098E+02   -0.23340E-06   -0.21496E-08    48   0.934E-04    0.160E-04
RMM:  42    -0.285292945093E+02   -0.99464E-07   -0.47107E-08    54   0.128E-03    0.846E-04
RMM:  43    -0.285292944940E+02    0.15312E-07   -0.68588E-09    46   0.575E-04    0.117E-03
RMM:  44    -0.285292946202E+02   -0.12621E-06   -0.36760E-09    42   0.417E-04    0.122E-03
RMM:  45    -0.285292948122E+02   -0.19202E-06   -0.53340E-09    42   0.527E-04    0.798E-04
RMM:  46    -0.285292950482E+02   -0.23594E-06   -0.24503E-08    46   0.110E-03    0.107E-04
RMM:  47    -0.285292951655E+02   -0.11738E-06   -0.20717E-08    48   0.960E-04    0.505E-04
RMM:  48    -0.285292952399E+02   -0.74341E-07   -0.57944E-09    46   0.492E-04    0.534E-04
RMM:  49    -0.285292952990E+02   -0.59118E-07   -0.14530E-09    46   0.256E-04    0.360E-04
RMM:  50    -0.285292953353E+02   -0.36278E-07   -0.31228E-09    48   0.434E-04    0.953E-05
RMM:  51    -0.285292953646E+02   -0.29285E-07   -0.31865E-09    44   0.405E-04    0.141E-04
RMM:  52    -0.285292953786E+02   -0.14095E-07   -0.11863E-09    40   0.240E-04    0.117E-04
RMM:  53    -0.285292953839E+02   -0.52769E-08   -0.21504E-10    34   0.152E-04
   1 F= -.28529295E+02 E0= -.28529295E+02  d E =-.360735E-13
