<?xml version="1.0" encoding="ISO-8859-1"?>
<modeling>
 <generator>
  <i name="program" type="string">vasp </i>
  <i name="version" type="string">5.4.4.18Apr17-6-g9f103f2a35  </i>
  <i name="subversion" type="string">(build Nov 25 2019 16:34:31) complex            parallel </i>
  <i name="platform" type="string">LinuxIFC </i>
  <i name="date" type="string">2021 04 06 </i>
  <i name="time" type="string">12:17:54 </i>
 </generator>
 <incar>
  <i type="string" name="PREC">a</i>
  <i type="string" name="ALGO">fast</i>
  <i name="AMIN">      0.00500000</i>
  <i type="int" name="NELM">   300</i>
  <i type="int" name="NELMIN">     4</i>
  <i type="int" name="IBRION">    -1</i>
  <i name="EDIFF">      0.00000001</i>
  <i type="int" name="NSW">     0</i>
  <i type="int" name="ISIF">     2</i>
  <i name="ENCUT">   1500.00000000</i>
  <i type="logical" name="LREAL"> F  </i>
  <i type="int" name="ISMEAR">     0</i>
  <i name="SIGMA">      0.05000000</i>
  <i name="KSPACING">      0.50000000</i>
  <i type="logical" name="KGAMMA"> F  </i>
  <i name="PSTRESS">      0.00000000</i>
  <i type="logical" name="LWAVE"> F  </i>
  <i type="logical" name="LCHARG"> F  </i>
  <v type="int" name="KPOINT_BSE">    -1     0     0     0</v>
  <i type="int" name="NELM">   300</i>
 </incar>
 <structure name="primitive_cell" >
  <crystal>
   <varray name="basis" >
    <v>      30.00000000       0.00000000       0.00000000 </v>
    <v>       0.00000000      10.00000000       0.00000000 </v>
    <v>       0.00000000       0.00000000      10.00000000 </v>
   </varray>
   <i name="volume">   3000.00000000 </i>
   <varray name="rec_basis" >
    <v>       0.03333333       0.00000000       0.00000000 </v>
    <v>       0.00000000       0.10000000       0.00000000 </v>
    <v>       0.00000000       0.00000000       0.10000000 </v>
   </varray>
  </crystal>
  <varray name="positions" >
   <v>       0.04486896       0.15710957       0.17600000 </v>
   <v>       0.01147255       0.16672783       0.17649328 </v>
   <v>       0.05554413       0.25541218       0.17439231 </v>
   <v>      -0.04486896       0.15710957       0.17600000 </v>
   <v>      -0.05375150       0.09907990       0.09607226 </v>
   <v>      -0.05387697       0.09941802       0.25610440 </v>
  </varray>
 </structure>
 <varray name="primitive_index" >
  <v type="int" >        1 </v>
  <v type="int" >        4 </v>
  <v type="int" >        3 </v>
  <v type="int" >        2 </v>
  <v type="int" >        6 </v>
  <v type="int" >        5 </v>
 </varray>
 <kpoints>
  <generation param="Monkhorst-Pack">
   <v type="int" name="divisions">       1        2        2 </v>
   <v name="usershift">      0.00000000       0.00000000       0.00000000 </v>
   <v name="genvec1">      1.00000000       0.00000000       0.00000000 </v>
   <v name="genvec2">      0.00000000       0.50000000       0.00000000 </v>
   <v name="genvec3">      0.00000000       0.00000000       0.50000000 </v>
   <v name="shift">      0.00000000       0.50000000       0.50000000 </v>
  </generation>
  <varray name="kpointlist" >
   <v>       0.00000000       0.25000000       0.25000000 </v>
   <v>       0.00000000      -0.25000000       0.25000000 </v>
  </varray>
  <varray name="weights" >
   <v>       0.50000000 </v>
   <v>       0.50000000 </v>
  </varray>
 </kpoints>
 <parameters>
  <separator name="general" >
   <i type="string" name="SYSTEM">unknown system</i>
   <i type="logical" name="LCOMPAT"> F  </i>
  </separator>
  <separator name="electronic" >
   <i type="string" name="PREC">a</i>
   <i name="ENMAX">   1500.00000000</i>
   <i name="ENAUG">   1000.00000000</i>
   <i name="EDIFF">      0.00000001</i>
   <i type="int" name="IALGO">    68</i>
   <i type="int" name="IWAVPR">    10</i>
   <i type="int" name="NBANDS">    12</i>
   <i name="NELECT">     16.00000000</i>
   <i type="int" name="TURBO">     0</i>
   <i type="int" name="IRESTART">     0</i>
   <i type="int" name="NREBOOT">     0</i>
   <i type="int" name="NMIN">     0</i>
   <i name="EREF">      0.00000000</i>
   <separator name="electronic smearing" >
    <i type="int" name="ISMEAR">     0</i>
    <i name="SIGMA">      0.05000000</i>
    <i name="KSPACING">      0.50000000</i>
    <i type="logical" name="KGAMMA"> F  </i>
   </separator>
   <separator name="electronic projectors" >
    <i type="logical" name="LREAL"> F  </i>
    <v name="ROPT">      0.00000000      0.00000000</v>
    <i type="int" name="LMAXPAW">  -100</i>
    <i type="int" name="LMAXMIX">     2</i>
    <i type="logical" name="NLSPLINE"> F  </i>
   </separator>
   <separator name="electronic startup" >
    <i type="int" name="ISTART">     0</i>
    <i type="int" name="ICHARG">     2</i>
    <i type="int" name="INIWAV">     1</i>
   </separator>
   <separator name="electronic spin" >
    <i type="int" name="ISPIN">     1</i>
    <i type="logical" name="LNONCOLLINEAR"> F  </i>
    <v name="MAGMOM">      1.00000000      1.00000000      1.00000000      1.00000000      1.00000000      1.00000000</v>
    <i name="NUPDOWN">     -1.00000000</i>
    <i type="logical" name="LSORBIT"> F  </i>
    <v name="SAXIS">      0.00000000      0.00000000      1.00000000</v>
    <i type="logical" name="LSPIRAL"> F  </i>
    <v name="QSPIRAL">      0.00000000      0.00000000      0.00000000</v>
    <i type="logical" name="LZEROZ"> F  </i>
   </separator>
   <separator name="electronic exchange-correlation" >
    <i type="logical" name="LASPH"> F  </i>
    <i type="logical" name="LMETAGGA"> F  </i>
   </separator>
   <separator name="electronic convergence" >
    <i type="int" name="NELM">   300</i>
    <i type="int" name="NELMDL">     0</i>
    <i type="int" name="NELMIN">     4</i>
    <i name="ENINI">   1500.00000000</i>
    <separator name="electronic convergence detail" >
     <i type="logical" name="LDIAG"> T  </i>
     <i type="logical" name="LSUBROT"> F  </i>
     <i name="WEIMIN">      0.00000000</i>
     <i name="EBREAK">      0.00000000</i>
     <i name="DEPER">      0.30000000</i>
     <i type="int" name="NRMM">     4</i>
     <i name="TIME">      0.40000000</i>
    </separator>
   </separator>
   <separator name="electronic mixer" >
    <i name="AMIX">      0.40000000</i>
    <i name="BMIX">      1.00000000</i>
    <i name="AMIN">      0.00500000</i>
    <i name="AMIX_MAG">      1.60000000</i>
    <i name="BMIX_MAG">      1.00000000</i>
    <separator name="electronic mixer details" >
     <i type="int" name="IMIX">     4</i>
     <i type="logical" name="MIXFIRST"> F  </i>
     <i type="int" name="MAXMIX">   -45</i>
     <i name="WC">    100.00000000</i>
     <i type="int" name="INIMIX">     1</i>
     <i type="int" name="MIXPRE">     1</i>
     <i type="int" name="MREMOVE">     5</i>
    </separator>
   </separator>
   <separator name="electronic dipolcorrection" >
    <i type="logical" name="LDIPOL"> F  </i>
    <i type="logical" name="LMONO"> F  </i>
    <i type="int" name="IDIPOL">     0</i>
    <i name="EPSILON">      1.00000000</i>
    <v name="DIPOL">   -100.00000000   -100.00000000   -100.00000000</v>
    <i name="EFIELD">      0.00000000</i>
   </separator>
  </separator>
  <separator name="grids" >
   <i type="int" name="NGX">   384</i>
   <i type="int" name="NGY">   126</i>
   <i type="int" name="NGZ">   126</i>
   <i type="int" name="NGXF">   768</i>
   <i type="int" name="NGYF">   252</i>
   <i type="int" name="NGZF">   252</i>
   <i type="logical" name="ADDGRID"> F  </i>
  </separator>
  <separator name="ionic" >
   <i type="int" name="NSW">     0</i>
   <i type="int" name="IBRION">    -1</i>
   <i type="int" name="MDALGO">     0</i>
   <i type="int" name="ISIF">     2</i>
   <i name="PSTRESS">      0.00000000</i>
   <i name="EDIFFG">      0.00000010</i>
   <i type="int" name="NFREE">     0</i>
   <i name="POTIM">      0.50000000</i>
   <i name="SMASS">     -3.00000000</i>
   <i name="SCALEE">      1.00000000</i>
  </separator>
  <separator name="ionic md" >
   <i name="TEBEG">      0.00010000</i>
   <i name="TEEND">      0.00010000</i>
   <i type="int" name="NBLOCK">     1</i>
   <i type="int" name="KBLOCK">     1</i>
   <i type="int" name="NPACO">   256</i>
   <i name="APACO">     16.00000000</i>
  </separator>
  <separator name="symmetry" >
   <i type="int" name="ISYM">     2</i>
   <i name="SYMPREC">      0.00001000</i>
  </separator>
  <separator name="dos" >
   <i type="int" name="LORBIT">     0</i>
   <v name="RWIGS">     -1.00000000     -1.00000000</v>
   <i type="int" name="NEDOS">   301</i>
   <i name="EMIN">     10.00000000</i>
   <i name="EMAX">    -10.00000000</i>
   <i name="EFERMI">      0.00000000</i>
  </separator>
  <separator name="writing" >
   <i type="int" name="NWRITE">     2</i>
   <i type="logical" name="LWAVE"> F  </i>
   <i type="logical" name="LDOWNSAMPLE"> F  </i>
   <i type="logical" name="LCHARG"> F  </i>
   <i type="logical" name="LPARD"> F  </i>
   <i type="logical" name="LVTOT"> F  </i>
   <i type="logical" name="LVHAR"> F  </i>
   <i type="logical" name="LELF"> F  </i>
   <i type="logical" name="LOPTICS"> F  </i>
   <v name="STM">      0.00000000      0.00000000      0.00000000      0.00000000      0.00000000      0.00000000      0.00000000</v>
  </separator>
  <separator name="performance" >
   <i type="int" name="NPAR">     2</i>
   <i type="int" name="NSIM">     4</i>
   <i type="int" name="NBLK">    -1</i>
   <i type="logical" name="LPLANE"> T  </i>
   <i type="logical" name="LSCALAPACK"> T  </i>
   <i type="logical" name="LSCAAWARE"> F  </i>
   <i type="logical" name="LSCALU"> F  </i>
   <i type="logical" name="LASYNC"> F  </i>
   <i type="logical" name="LORBITALREAL"> F  </i>
  </separator>
  <separator name="miscellaneous" >
   <i type="int" name="IDIOT">     3</i>
   <i type="int" name="ISPECIAL">     0</i>
   <i type="logical" name="LMUSIC"> F  </i>
   <v name="POMASS">     16.00000000      1.00000000</v>
   <v name="DARWINR">      0.00000000      0.00000000</v>
   <v name="DARWINV">      1.00000000      1.00000000</v>
   <i type="logical" name="LCORR"> T  </i>
  </separator>
  <i type="logical" name="GGA_COMPAT"> T  </i>
  <i type="logical" name="LBERRY"> F  </i>
  <i type="int" name="ICORELEVEL">     0</i>
  <i type="logical" name="LDAU"> F  </i>
  <i type="int" name="I_CONSTRAINED_M">     0</i>
  <separator name="electronic exchange-correlation" >
   <i type="string" name="GGA">--</i>
   <i type="int" name="VOSKOWN">     0</i>
   <i type="logical" name="LHFCALC"> F  </i>
   <i type="string" name="PRECFOCK"></i>
   <i type="logical" name="LSYMGRAD"> F  </i>
   <i type="logical" name="LHFONE"> F  </i>
   <i type="logical" name="LRHFCALC"> F  </i>
   <i type="logical" name="LTHOMAS"> F  </i>
   <i type="logical" name="LMODELHF"> F  </i>
   <i name="ENCUT4O">     -1.00000000</i>
   <i type="int" name="EXXOEP">     0</i>
   <i type="int" name="FOURORBIT">     0</i>
   <i name="AEXX">      0.00000000</i>
   <i name="HFALPHA">      0.00000000</i>
   <i name="MCALPHA">      0.00000000</i>
   <i name="ALDAX">      1.00000000</i>
   <i name="AGGAX">      1.00000000</i>
   <i name="ALDAC">      1.00000000</i>
   <i name="AGGAC">      1.00000000</i>
   <i type="int" name="NKREDX">     1</i>
   <i type="int" name="NKREDY">     1</i>
   <i type="int" name="NKREDZ">     1</i>
   <i type="logical" name="SHIFTRED"> F  </i>
   <i type="logical" name="ODDONLY"> F  </i>
   <i type="logical" name="EVENONLY"> F  </i>
   <i type="int" name="LMAXFOCK">     0</i>
   <i type="int" name="NMAXFOCKAE">     0</i>
   <i type="logical" name="LFOCKAEDFT"> F  </i>
   <i name="HFSCREEN">      0.00000000</i>
   <i name="HFSCREENC">      0.00000000</i>
   <i type="int" name="NBANDSGWLOW">     0</i>
  </separator>
  <separator name="vdW DFT" >
   <i type="logical" name="LUSE_VDW"> F  </i>
   <i name="Zab_VDW">     -0.84910000</i>
   <i name="PARAM1">      0.12340000</i>
   <i name="PARAM2">      1.00000000</i>
   <i name="PARAM3">      0.00000000</i>
  </separator>
  <separator name="model GW" >
   <i type="int" name="MODEL_GW">     0</i>
   <i name="MODEL_EPS0">    300.00000000</i>
   <i name="MODEL_ALPHA">      1.00000000</i>
  </separator>
  <separator name="linear response parameters" >
   <i type="logical" name="LEPSILON"> F  </i>
   <i type="logical" name="LRPA"> F  </i>
   <i type="logical" name="LNABLA"> F  </i>
   <i type="logical" name="LVEL"> F  </i>
   <i type="int" name="KINTER">     0</i>
   <i name="CSHIFT">      0.10000000</i>
   <i name="OMEGAMAX">     -1.00000000</i>
   <i name="DEG_THRESHOLD">      0.00200000</i>
   <i name="RTIME">     -0.10000000</i>
   <i name="WPLASMAI">      0.00000000</i>
   <v name="DFIELD">      0.00000000      0.00000000      0.00000000</v>
   <v name="WPLASMA">      0.00000000      0.00000000      0.00000000      0.00000000      0.00000000      0.00000000      0.00000000      0.00000000      0.00000000</v>
  </separator>
  <separator name="orbital magnetization" >
   <i type="logical" name="NUCIND"> F  </i>
   <v name="MAGPOS">      0.00000000      0.00000000      0.00000000</v>
   <i type="logical" name="LNICSALL"> T  </i>
   <i type="logical" name="ORBITALMAG"> F  </i>
   <i type="logical" name="LMAGBLOCH"> F  </i>
   <i type="logical" name="LCHIMAG"> F  </i>
   <i type="logical" name="LGAUGE"> T  </i>
   <i type="int" name="MAGATOM">     0</i>
   <v name="MAGDIPOL">      0.00000000      0.00000000      0.00000000</v>
   <v name="AVECCONST">      0.00000000      0.00000000      0.00000000</v>
  </separator>
  <separator name="response functions" >
   <i type="logical" name="LADDER"> F  </i>
   <i type="logical" name="LRPAFORCE"> F  </i>
   <i type="logical" name="LFXC"> F  </i>
   <i type="logical" name="LHARTREE"> T  </i>
   <i type="int" name="IBSE">     0</i>
   <v type="int" name="KPOINT">    -1     0     0     0</v>
   <i type="logical" name="LTCTE"> F  </i>
   <i type="logical" name="LTETE"> F  </i>
   <i type="logical" name="LTRIPLET"> F  </i>
   <i type="logical" name="LFXCEPS"> F  </i>
   <i type="logical" name="LFXHEG"> F  </i>
   <i type="int" name="NATURALO">     2</i>
   <i type="logical" name="L2ORDER"> F  </i>
   <i type="logical" name="LMP2LT"> F  </i>
   <i type="logical" name="LUSEW"> F  </i>
   <i name="ENCUTGW">     -2.00000000</i>
   <i name="ENCUTGWSOFT">     -2.00000000</i>
   <i name="ENCUTLF">     -1.00000000</i>
   <i type="int" name="LMAXMP2">    -1</i>
   <i name="SCISSOR">      0.00000000</i>
   <i type="int" name="NOMEGA">     0</i>
   <i type="int" name="NOMEGAR">     0</i>
   <i type="int" name="NBANDSGW">    -1</i>
   <i type="int" name="NBANDSO">    -1</i>
   <i type="int" name="NBANDSV">    -1</i>
   <i type="int" name="NELM">   300</i>
   <i type="int" name="NELMHF">     1</i>
   <i type="int" name="DIM">     3</i>
   <i type="int" name="ANTIRES">     0</i>
   <i name="OMEGAMAX">    -30.00000000</i>
   <i name="OMEGAMIN">    -30.00000000</i>
   <i name="OMEGATL">   -200.00000000</i>
   <i type="int" name="OMEGAGRID">   140</i>
   <i name="CSHIFT">     -0.10000000</i>
   <i type="logical" name="SELFENERGY"> F  </i>
   <i type="logical" name="LSPECTRAL"> F  </i>
   <i type="logical" name="LSPECTRALGW"> F  </i>
   <i type="logical" name="LSINGLES"> F  </i>
   <i type="logical" name="LFERMIGW"> F  </i>
   <i type="logical" name="ODDONLYGW"> F  </i>
   <i type="logical" name="EVENONLYGW"> F  </i>
   <i type="int" name="NKREDLFX">     1</i>
   <i type="int" name="NKREDLFY">     1</i>
   <i type="int" name="NKREDLFZ">     1</i>
   <i type="int" name="MAXMEM">  2800</i>
   <i type="int" name="TELESCOPE">     0</i>
   <i type="int" name="TAUPAR">     1</i>
   <i type="int" name="OMEGAPAR">    -1</i>
   <i name="LAMBDA">      1.00000000</i>
  </separator>
  <separator name="External order field" >
   <i name="OFIELD_KAPPA">      0.00000000</i>
   <v name="OFIELD_K">      0.00000000      0.00000000      0.00000000</v>
   <i name="OFIELD_Q6_NEAR">      0.00000000</i>
   <i name="OFIELD_Q6_FAR">      0.00000000</i>
   <i name="OFIELD_A">      0.00000000</i>
  </separator>
 </parameters>
 <atominfo>
  <atoms>       6 </atoms>
  <types>       2 </types>
  <array name="atoms" >
   <dimension dim="1">ion</dimension>
   <field type="string">element</field>
   <field type="int">atomtype</field>
   <set>
    <rc><c>O </c><c>   1</c></rc>
    <rc><c>O </c><c>   1</c></rc>
    <rc><c>H </c><c>   2</c></rc>
    <rc><c>H </c><c>   2</c></rc>
    <rc><c>H </c><c>   2</c></rc>
    <rc><c>H </c><c>   2</c></rc>
   </set>
  </array>
  <array name="atomtypes" >
   <dimension dim="1">type</dimension>
   <field type="int">atomspertype</field>
   <field type="string">element</field>
   <field>mass</field>
   <field>valence</field>
   <field type="string">pseudopotential</field>
   <set>
    <rc><c>   2</c><c>O </c><c>     16.00000000</c><c>      6.00000000</c><c>  PAW_PBE O_h 06Feb2004                 </c></rc>
    <rc><c>   4</c><c>H </c><c>      1.00000000</c><c>      1.00000000</c><c>  PAW_PBE H_h 06Feb2004                 </c></rc>
   </set>
  </array>
 </atominfo>
 <structure name="initialpos" >
  <crystal>
   <varray name="basis" >
    <v>      30.00000000       0.00000000       0.00000000 </v>
    <v>       0.00000000      10.00000000       0.00000000 </v>
    <v>       0.00000000       0.00000000      10.00000000 </v>
   </varray>
   <i name="volume">   3000.00000000 </i>
   <varray name="rec_basis" >
    <v>       0.03333333       0.00000000       0.00000000 </v>
    <v>       0.00000000       0.10000000       0.00000000 </v>
    <v>       0.00000000       0.00000000       0.10000000 </v>
   </varray>
  </crystal>
  <varray name="positions" >
   <v>       0.04486896       0.15710957       0.17600000 </v>
   <v>       0.95513104       0.15710957       0.17600000 </v>
   <v>       0.05554413       0.25541218       0.17439231 </v>
   <v>       0.01147255       0.16672783       0.17649328 </v>
   <v>       0.94612303       0.09941802       0.25610440 </v>
   <v>       0.94624850       0.09907990       0.09607226 </v>
  </varray>
 </structure>
 <calculation>
  <scstep>
   <time name="dav">    3.54    3.55</time>
   <time name="total">    6.16    6.24</time>
   <energy>
    <i name="alphaZ">      0.21758540 </i>
    <i name="ewald">    549.10187431 </i>
    <i name="hartreedc">  -1273.30463164 </i>
    <i name="XCdc">     60.95538505 </i>
    <i name="pawpsdc">    697.41634940 </i>
    <i name="pawaedc">   -699.85762974 </i>
    <i name="eentropy">     -0.00000000 </i>
    <i name="bandstr">   -111.35406511 </i>
    <i name="atom">    914.70366869 </i>
    <i name="e_fr_energy">    137.87853637 </i>
    <i name="e_wo_entrp">    137.87853637 </i>
    <i name="e_0_energy">    137.87853637 </i>
   </energy>
  </scstep>
  <scstep>
   <time name="dav">    3.55    3.57</time>
   <time name="total">    3.55    3.57</time>
   <energy>
    <i name="e_fr_energy">     50.39124836 </i>
    <i name="e_wo_entrp">     50.39124836 </i>
    <i name="e_0_energy">     50.39124836 </i>
   </energy>
  </scstep>
  <scstep>
   <time name="dav">    4.10    4.11</time>
   <time name="total">    4.10    4.11</time>
   <energy>
    <i name="e_fr_energy">    -16.74166036 </i>
    <i name="e_wo_entrp">    -16.74166036 </i>
    <i name="e_0_energy">    -16.74166036 </i>
   </energy>
  </scstep>
  <scstep>
   <time name="dav">    3.51    3.52</time>
   <time name="total">    3.51    3.52</time>
   <energy>
    <i name="e_fr_energy">    -31.59631338 </i>
    <i name="e_wo_entrp">    -31.59631338 </i>
    <i name="e_0_energy">    -31.59631338 </i>
   </energy>
  </scstep>
  <scstep>
   <time name="dav">    3.53    3.54</time>
   <time name="total">    4.06    4.07</time>
   <energy>
    <i name="e_fr_energy">    -32.06339634 </i>
    <i name="e_wo_entrp">    -32.06339634 </i>
    <i name="e_0_energy">    -32.06339634 </i>
   </energy>
  </scstep>
  <scstep>
   <time name="diag">    0.67    0.67</time>
   <time name="diis">    3.62    3.63</time>
   <time name="orth">    0.02    0.02</time>
   <time name="total">    7.52    7.55</time>
   <energy>
    <i name="e_fr_energy">    -28.85379821 </i>
    <i name="e_wo_entrp">    -28.85379821 </i>
    <i name="e_0_energy">    -28.85379821 </i>
   </energy>
  </scstep>
  <scstep>
   <time name="diag">    0.69    0.69</time>
   <time name="diis">    4.33    4.34</time>
   <time name="orth">    0.02    0.02</time>
   <time name="total">    8.30    8.31</time>
   <energy>
    <i name="e_fr_energy">    -28.78484188 </i>
    <i name="e_wo_entrp">    -28.78484188 </i>
    <i name="e_0_energy">    -28.78484188 </i>
   </energy>
  </scstep>
  <scstep>
   <time name="diag">    0.66    0.66</time>
   <time name="diis">    3.63    3.63</time>
   <time name="orth">    0.02    0.02</time>
   <time name="total">    7.54    7.55</time>
   <energy>
    <i name="e_fr_energy">    -29.50545435 </i>
    <i name="e_wo_entrp">    -29.50545435 </i>
    <i name="e_0_energy">    -29.50545435 </i>
   </energy>
  </scstep>
  <scstep>
   <time name="diag">    0.67    0.67</time>
   <time name="diis">    3.63    3.64</time>
   <time name="orth">    0.02    0.02</time>
   <time name="total">    7.62    7.64</time>
   <energy>
    <i name="e_fr_energy">    -28.53472823 </i>
    <i name="e_wo_entrp">    -28.53472823 </i>
    <i name="e_0_energy">    -28.53472823 </i>
   </energy>
  </scstep>
  <scstep>
   <time name="diag">    0.67    0.67</time>
   <time name="diis">    4.28    4.29</time>
   <time name="orth">    0.02    0.02</time>
   <time name="total">    8.13    8.21</time>
   <energy>
    <i name="e_fr_energy">    -28.53537478 </i>
    <i name="e_wo_entrp">    -28.53537478 </i>
    <i name="e_0_energy">    -28.53537478 </i>
   </energy>
  </scstep>
  <scstep>
   <time name="diag">    0.67    0.67</time>
   <time name="diis">    3.67    3.67</time>
   <time name="orth">    0.02    0.02</time>
   <time name="total">    7.60    7.61</time>
   <energy>
    <i name="e_fr_energy">    -28.52258743 </i>
    <i name="e_wo_entrp">    -28.52258743 </i>
    <i name="e_0_energy">    -28.52258743 </i>
   </energy>
  </scstep>
  <scstep>
   <time name="diag">    0.67    0.67</time>
   <time name="diis">    3.44    3.44</time>
   <time name="orth">    0.02    0.02</time>
   <time name="total">    7.34    7.35</time>
   <energy>
    <i name="e_fr_energy">    -28.51922782 </i>
    <i name="e_wo_entrp">    -28.51922782 </i>
    <i name="e_0_energy">    -28.51922782 </i>
   </energy>
  </scstep>
  <scstep>
   <time name="diag">    0.67    0.67</time>
   <time name="diis">    4.18    4.18</time>
   <time name="orth">    0.02    0.02</time>
   <time name="total">    8.08    8.09</time>
   <energy>
    <i name="e_fr_energy">    -28.52176932 </i>
    <i name="e_wo_entrp">    -28.52176932 </i>
    <i name="e_0_energy">    -28.52176932 </i>
   </energy>
  </scstep>
  <scstep>
   <time name="diag">    0.67    0.67</time>
   <time name="diis">    3.49    3.49</time>
   <time name="orth">    0.02    0.02</time>
   <time name="total">    7.37    7.40</time>
   <energy>
    <i name="e_fr_energy">    -28.52360620 </i>
    <i name="e_wo_entrp">    -28.52360620 </i>
    <i name="e_0_energy">    -28.52360620 </i>
   </energy>
  </scstep>
  <scstep>
   <time name="diag">    0.67    0.67</time>
   <time name="diis">    3.45    3.45</time>
   <time name="orth">    0.02    0.02</time>
   <time name="total">    7.34    7.35</time>
   <energy>
    <i name="e_fr_energy">    -28.52487222 </i>
    <i name="e_wo_entrp">    -28.52487222 </i>
    <i name="e_0_energy">    -28.52487222 </i>
   </energy>
  </scstep>
  <scstep>
   <time name="diag">    0.67    0.67</time>
   <time name="diis">    3.95    3.95</time>
   <time name="orth">    0.02    0.02</time>
   <time name="total">    7.85    7.86</time>
   <energy>
    <i name="e_fr_energy">    -28.52580022 </i>
    <i name="e_wo_entrp">    -28.52580022 </i>
    <i name="e_0_energy">    -28.52580022 </i>
   </energy>
  </scstep>
  <scstep>
   <time name="diag">    0.66    0.66</time>
   <time name="diis">    3.36    3.37</time>
   <time name="orth">    0.02    0.02</time>
   <time name="total">    7.25    7.26</time>
   <energy>
    <i name="e_fr_energy">    -28.52768924 </i>
    <i name="e_wo_entrp">    -28.52768924 </i>
    <i name="e_0_energy">    -28.52768924 </i>
   </energy>
  </scstep>
  <scstep>
   <time name="diag">    0.67    0.67</time>
   <time name="diis">    3.85    3.86</time>
   <time name="orth">    0.02    0.02</time>
   <time name="total">    7.72    7.74</time>
   <energy>
    <i name="e_fr_energy">    -28.52792094 </i>
    <i name="e_wo_entrp">    -28.52792094 </i>
    <i name="e_0_energy">    -28.52792094 </i>
   </energy>
  </scstep>
  <scstep>
   <time name="diag">    0.66    0.66</time>
   <time name="diis">    3.40    3.41</time>
   <time name="orth">    0.02    0.02</time>
   <time name="total">    7.31    7.32</time>
   <energy>
    <i name="e_fr_energy">    -28.52748879 </i>
    <i name="e_wo_entrp">    -28.52748879 </i>
    <i name="e_0_energy">    -28.52748879 </i>
   </energy>
  </scstep>
  <scstep>
   <time name="diag">    0.66    0.66</time>
   <time name="diis">    3.75    3.75</time>
   <time name="orth">    0.02    0.02</time>
   <time name="total">    7.67    7.67</time>
   <energy>
    <i name="e_fr_energy">    -28.52692433 </i>
    <i name="e_wo_entrp">    -28.52692433 </i>
    <i name="e_0_energy">    -28.52692433 </i>
   </energy>
  </scstep>
  <scstep>
   <time name="diag">    0.67    0.67</time>
   <time name="diis">    3.61    3.61</time>
   <time name="orth">    0.02    0.02</time>
   <time name="total">    7.56    7.56</time>
   <energy>
    <i name="e_fr_energy">    -28.52605235 </i>
    <i name="e_wo_entrp">    -28.52605235 </i>
    <i name="e_0_energy">    -28.52605235 </i>
   </energy>
  </scstep>
  <scstep>
   <time name="diag">    0.67    0.67</time>
   <time name="diis">    3.83    3.83</time>
   <time name="orth">    0.02    0.02</time>
   <time name="total">    7.77    7.78</time>
   <energy>
    <i name="e_fr_energy">    -28.52618858 </i>
    <i name="e_wo_entrp">    -28.52618858 </i>
    <i name="e_0_energy">    -28.52618858 </i>
   </energy>
  </scstep>
  <scstep>
   <time name="diag">    0.67    0.67</time>
   <time name="diis">    3.56    3.56</time>
   <time name="orth">    0.02    0.02</time>
   <time name="total">    7.53    7.54</time>
   <energy>
    <i name="e_fr_energy">    -28.52560162 </i>
    <i name="e_wo_entrp">    -28.52560162 </i>
    <i name="e_0_energy">    -28.52560162 </i>
   </energy>
  </scstep>
  <scstep>
   <time name="diag">    0.66    0.66</time>
   <time name="diis">    3.56    3.57</time>
   <time name="orth">    0.02    0.02</time>
   <time name="total">    7.53    7.54</time>
   <energy>
    <i name="e_fr_energy">    -28.52603078 </i>
    <i name="e_wo_entrp">    -28.52603078 </i>
    <i name="e_0_energy">    -28.52603078 </i>
   </energy>
  </scstep>
  <scstep>
   <time name="diag">    0.67    0.67</time>
   <time name="diis">    3.60    3.63</time>
   <time name="orth">    0.02    0.02</time>
   <time name="total">    7.59    7.64</time>
   <energy>
    <i name="e_fr_energy">    -28.52653380 </i>
    <i name="e_wo_entrp">    -28.52653380 </i>
    <i name="e_0_energy">    -28.52653380 </i>
   </energy>
  </scstep>
  <scstep>
   <time name="diag">    0.67    0.67</time>
   <time name="diis">    3.19    3.20</time>
   <time name="orth">    0.02    0.02</time>
   <time name="total">    7.17    7.18</time>
   <energy>
    <i name="e_fr_energy">    -28.52676117 </i>
    <i name="e_wo_entrp">    -28.52676117 </i>
    <i name="e_0_energy">    -28.52676117 </i>
   </energy>
  </scstep>
  <scstep>
   <time name="diag">    0.66    0.66</time>
   <time name="diis">    3.68    3.68</time>
   <time name="orth">    0.02    0.02</time>
   <time name="total">    7.67    7.68</time>
   <energy>
    <i name="e_fr_energy">    -28.52765275 </i>
    <i name="e_wo_entrp">    -28.52765275 </i>
    <i name="e_0_energy">    -28.52765275 </i>
   </energy>
  </scstep>
  <scstep>
   <time name="diag">    0.66    0.67</time>
   <time name="diis">    3.24    3.24</time>
   <time name="orth">    0.02    0.02</time>
   <time name="total">    7.24    7.25</time>
   <energy>
    <i name="e_fr_energy">    -28.52850335 </i>
    <i name="e_wo_entrp">    -28.52850335 </i>
    <i name="e_0_energy">    -28.52850335 </i>
   </energy>
  </scstep>
  <scstep>
   <time name="diag">    0.66    0.67</time>
   <time name="diis">    3.51    3.51</time>
   <time name="orth">    0.02    0.02</time>
   <time name="total">    7.49    7.50</time>
   <energy>
    <i name="e_fr_energy">    -28.52876865 </i>
    <i name="e_wo_entrp">    -28.52876865 </i>
    <i name="e_0_energy">    -28.52876865 </i>
   </energy>
  </scstep>
  <scstep>
   <time name="diag">    0.67    0.67</time>
   <time name="diis">    4.08    4.08</time>
   <time name="orth">    0.02    0.02</time>
   <time name="total">    8.19    8.21</time>
   <energy>
    <i name="e_fr_energy">    -28.52909393 </i>
    <i name="e_wo_entrp">    -28.52909393 </i>
    <i name="e_0_energy">    -28.52909393 </i>
   </energy>
  </scstep>
  <scstep>
   <time name="diag">    0.64    0.68</time>
   <time name="diis">    3.72    3.79</time>
   <time name="orth">    0.02    0.02</time>
   <time name="total">    7.66    7.83</time>
   <energy>
    <i name="e_fr_energy">    -28.52920191 </i>
    <i name="e_wo_entrp">    -28.52920191 </i>
    <i name="e_0_energy">    -28.52920191 </i>
   </energy>
  </scstep>
  <scstep>
   <time name="diag">    0.65    0.68</time>
   <time name="diis">    3.40    3.53</time>
   <time name="orth">    0.02    0.02</time>
   <time name="total">    7.38    7.59</time>
   <energy>
    <i name="e_fr_energy">    -28.52925925 </i>
    <i name="e_wo_entrp">    -28.52925925 </i>
    <i name="e_0_energy">    -28.52925925 </i>
   </energy>
  </scstep>
  <scstep>
   <time name="diag">    0.68    0.68</time>
   <time name="diis">    4.29    4.31</time>
   <time name="orth">    0.02    0.02</time>
   <time name="total">    8.37    8.39</time>
   <energy>
    <i name="e_fr_energy">    -28.52927846 </i>
    <i name="e_wo_entrp">    -28.52927846 </i>
    <i name="e_0_energy">    -28.52927846 </i>
   </energy>
  </scstep>
  <scstep>
   <time name="diag">    0.68    0.68</time>
   <time name="diis">    3.54    3.54</time>
   <time name="orth">    0.02    0.02</time>
   <time name="total">    7.66    7.66</time>
   <energy>
    <i name="e_fr_energy">    -28.52928432 </i>
    <i name="e_wo_entrp">    -28.52928432 </i>
    <i name="e_0_energy">    -28.52928432 </i>
   </energy>
  </scstep>
  <scstep>
   <time name="diag">    0.68    0.68</time>
   <time name="diis">    3.44    3.44</time>
   <time name="orth">    0.02    0.02</time>
   <time name="total">    7.56    7.56</time>
   <energy>
    <i name="e_fr_energy">    -28.52929072 </i>
    <i name="e_wo_entrp">    -28.52929072 </i>
    <i name="e_0_energy">    -28.52929072 </i>
   </energy>
  </scstep>
  <scstep>
   <time name="diag">    0.68    0.68</time>
   <time name="diis">    3.43    3.44</time>
   <time name="orth">    0.02    0.02</time>
   <time name="total">    7.56    7.58</time>
   <energy>
    <i name="e_fr_energy">    -28.52929177 </i>
    <i name="e_wo_entrp">    -28.52929177 </i>
    <i name="e_0_energy">    -28.52929177 </i>
   </energy>
  </scstep>
  <scstep>
   <time name="diag">    0.68    0.68</time>
   <time name="diis">    3.67    3.67</time>
   <time name="orth">    0.02    0.02</time>
   <time name="total">    7.85    7.85</time>
   <energy>
    <i name="e_fr_energy">    -28.52929346 </i>
    <i name="e_wo_entrp">    -28.52929346 </i>
    <i name="e_0_energy">    -28.52929346 </i>
   </energy>
  </scstep>
  <scstep>
   <time name="diag">    0.67    0.68</time>
   <time name="diis">    2.69    2.70</time>
   <time name="orth">    0.02    0.02</time>
   <time name="total">    6.89    6.91</time>
   <energy>
    <i name="e_fr_energy">    -28.52929372 </i>
    <i name="e_wo_entrp">    -28.52929372 </i>
    <i name="e_0_energy">    -28.52929372 </i>
   </energy>
  </scstep>
  <scstep>
   <time name="diag">    0.67    0.67</time>
   <time name="diis">    2.62    2.63</time>
   <time name="orth">    0.02    0.02</time>
   <time name="total">    6.82    6.83</time>
   <energy>
    <i name="e_fr_energy">    -28.52929410 </i>
    <i name="e_wo_entrp">    -28.52929410 </i>
    <i name="e_0_energy">    -28.52929410 </i>
   </energy>
  </scstep>
  <scstep>
   <time name="diag">    0.68    0.68</time>
   <time name="diis">    2.67    2.68</time>
   <time name="orth">    0.02    0.02</time>
   <time name="total">    6.88    6.90</time>
   <energy>
    <i name="e_fr_energy">    -28.52929418 </i>
    <i name="e_wo_entrp">    -28.52929418 </i>
    <i name="e_0_energy">    -28.52929418 </i>
   </energy>
  </scstep>
  <scstep>
   <time name="diag">    0.68    0.68</time>
   <time name="diis">    2.87    2.91</time>
   <time name="orth">    0.03    0.03</time>
   <time name="total">    7.08    7.15</time>
   <energy>
    <i name="e_fr_energy">    -28.52929441 </i>
    <i name="e_wo_entrp">    -28.52929441 </i>
    <i name="e_0_energy">    -28.52929441 </i>
   </energy>
  </scstep>
  <scstep>
   <time name="diag">    0.68    0.68</time>
   <time name="diis">    3.15    3.15</time>
   <time name="orth">    0.02    0.02</time>
   <time name="total">    7.34    7.35</time>
   <energy>
    <i name="e_fr_energy">    -28.52929451 </i>
    <i name="e_wo_entrp">    -28.52929451 </i>
    <i name="e_0_energy">    -28.52929451 </i>
   </energy>
  </scstep>
  <scstep>
   <time name="diag">    0.67    0.68</time>
   <time name="diis">    2.72    2.72</time>
   <time name="orth">    0.02    0.02</time>
   <time name="total">    6.86    6.90</time>
   <energy>
    <i name="e_fr_energy">    -28.52929449 </i>
    <i name="e_wo_entrp">    -28.52929449 </i>
    <i name="e_0_energy">    -28.52929449 </i>
   </energy>
  </scstep>
  <scstep>
   <time name="diag">    0.68    0.68</time>
   <time name="diis">    2.59    2.59</time>
   <time name="orth">    0.02    0.02</time>
   <time name="total">    6.69    6.81</time>
   <energy>
    <i name="e_fr_energy">    -28.52929462 </i>
    <i name="e_wo_entrp">    -28.52929462 </i>
    <i name="e_0_energy">    -28.52929462 </i>
   </energy>
  </scstep>
  <scstep>
   <time name="diag">    0.68    0.68</time>
   <time name="diis">    2.60    2.60</time>
   <time name="orth">    0.02    0.02</time>
   <time name="total">    6.83    6.84</time>
   <energy>
    <i name="e_fr_energy">    -28.52929481 </i>
    <i name="e_wo_entrp">    -28.52929481 </i>
    <i name="e_0_energy">    -28.52929481 </i>
   </energy>
  </scstep>
  <scstep>
   <time name="diag">    0.68    0.68</time>
   <time name="diis">    2.73    2.73</time>
   <time name="orth">    0.02    0.02</time>
   <time name="total">    7.01    7.02</time>
   <energy>
    <i name="e_fr_energy">    -28.52929505 </i>
    <i name="e_wo_entrp">    -28.52929505 </i>
    <i name="e_0_energy">    -28.52929505 </i>
   </energy>
  </scstep>
  <scstep>
   <time name="diag">    0.68    0.69</time>
   <time name="diis">    2.82    2.82</time>
   <time name="orth">    0.02    0.02</time>
   <time name="total">    7.13    7.13</time>
   <energy>
    <i name="e_fr_energy">    -28.52929517 </i>
    <i name="e_wo_entrp">    -28.52929517 </i>
    <i name="e_0_energy">    -28.52929517 </i>
   </energy>
  </scstep>
  <scstep>
   <time name="diag">    0.68    0.68</time>
   <time name="diis">    2.72    2.72</time>
   <time name="orth">    0.02    0.02</time>
   <time name="total">    7.06    7.06</time>
   <energy>
    <i name="e_fr_energy">    -28.52929524 </i>
    <i name="e_wo_entrp">    -28.52929524 </i>
    <i name="e_0_energy">    -28.52929524 </i>
   </energy>
  </scstep>
  <scstep>
   <time name="diag">    0.68    0.68</time>
   <time name="diis">    2.78    2.78</time>
   <time name="orth">    0.02    0.02</time>
   <time name="total">    7.03    7.06</time>
   <energy>
    <i name="e_fr_energy">    -28.52929530 </i>
    <i name="e_wo_entrp">    -28.52929530 </i>
    <i name="e_0_energy">    -28.52929530 </i>
   </energy>
  </scstep>
  <scstep>
   <time name="diag">    0.67    0.68</time>
   <time name="diis">    2.82    2.82</time>
   <time name="orth">    0.02    0.02</time>
   <time name="total">    6.94    7.17</time>
   <energy>
    <i name="e_fr_energy">    -28.52929534 </i>
    <i name="e_wo_entrp">    -28.52929534 </i>
    <i name="e_0_energy">    -28.52929534 </i>
   </energy>
  </scstep>
  <scstep>
   <time name="diag">    0.68    0.68</time>
   <time name="diis">    2.63    2.63</time>
   <time name="orth">    0.02    0.02</time>
   <time name="total">    6.90    6.90</time>
   <energy>
    <i name="e_fr_energy">    -28.52929536 </i>
    <i name="e_wo_entrp">    -28.52929536 </i>
    <i name="e_0_energy">    -28.52929536 </i>
   </energy>
  </scstep>
  <scstep>
   <time name="diag">    0.68    0.68</time>
   <time name="diis">    2.57    2.57</time>
   <time name="orth">    0.02    0.02</time>
   <time name="total">    6.84    6.84</time>
   <energy>
    <i name="e_fr_energy">    -28.52929538 </i>
    <i name="e_wo_entrp">    -28.52929538 </i>
    <i name="e_0_energy">    -28.52929538 </i>
   </energy>
  </scstep>
  <scstep>
   <time name="diag">    0.68    0.68</time>
   <time name="diis">    2.43    2.43</time>
   <time name="orth">    0.02    0.02</time>
   <time name="total">    5.86    5.86</time>
   <energy>
    <i name="alphaZ">      0.21758540 </i>
    <i name="ewald">    549.10187431 </i>
    <i name="hartreedc">  -1339.30438591 </i>
    <i name="XCdc">     64.26353576 </i>
    <i name="pawpsdc">   5213.89744203 </i>
    <i name="pawaedc">  -5216.80973756 </i>
    <i name="eentropy">     -0.00000000 </i>
    <i name="bandstr">   -214.59927811 </i>
    <i name="atom">    914.70366869 </i>
    <i name="e_fr_energy">    -28.52929538 </i>
    <i name="e_wo_entrp">    -28.52929538 </i>
    <i name="e_0_energy">    -28.52929538 </i>
   </energy>
  </scstep>
  <structure>
   <crystal>
    <varray name="basis" >
     <v>      30.00000000       0.00000000       0.00000000 </v>
     <v>       0.00000000      10.00000000       0.00000000 </v>
     <v>       0.00000000       0.00000000      10.00000000 </v>
    </varray>
    <i name="volume">   3000.00000000 </i>
    <varray name="rec_basis" >
     <v>       0.03333333       0.00000000       0.00000000 </v>
     <v>       0.00000000       0.10000000       0.00000000 </v>
     <v>       0.00000000       0.00000000       0.10000000 </v>
    </varray>
   </crystal>
   <varray name="positions" >
    <v>       0.04486896       0.15710957       0.17600000 </v>
    <v>       0.95513104       0.15710957       0.17600000 </v>
    <v>       0.05554413       0.25541218       0.17439231 </v>
    <v>       0.01147255       0.16672783       0.17649328 </v>
    <v>       0.94612303       0.09941802       0.25610440 </v>
    <v>       0.94624850       0.09907990       0.09607226 </v>
   </varray>
  </structure>
  <varray name="forces" >
   <v>       0.17706392       2.56065004      -0.03358900 </v>
   <v>      -1.48770256      -2.35046873       0.01919043 </v>
   <v>      -0.73256364      -2.44480065       0.04062151 </v>
   <v>       0.93664937      -0.10100440      -0.01103762 </v>
   <v>       0.55700027       1.16861770      -1.64001622 </v>
   <v>       0.54955265       1.16700604       1.62483089 </v>
  </varray>
  <varray name="stress" >
   <v>      -0.26438790      -0.67687922       0.01253345 </v>
   <v>      -0.67687922      -2.02780438       0.02247245 </v>
   <v>       0.01253346       0.02247245      -1.40197253 </v>
  </varray>
  <energy>
   <i name="e_fr_energy">    -28.52929538 </i>
   <i name="e_wo_entrp">    -28.52929538 </i>
   <i name="e_0_energy">     -0.00000000 </i>
  </energy>
  <time name="totalsc">  384.15  385.72</time>
  <eigenvalues>
   <array>
    <dimension dim="1">band</dimension>
    <dimension dim="2">kpoint</dimension>
    <dimension dim="3">spin</dimension>
    <field>eigene</field>
    <field>occ</field>
    <set>
     <set comment="spin 1">
      <set comment="kpoint 1">
       <r>  -25.7768    1.0000 </r>
       <r>  -23.6326    1.0000 </r>
       <r>  -13.4543    1.0000 </r>
       <r>  -11.8287    1.0000 </r>
       <r>  -10.2896    1.0000 </r>
       <r>   -8.5371    1.0000 </r>
       <r>   -7.6730    1.0000 </r>
       <r>   -6.1075    1.0000 </r>
       <r>   -1.5623    0.0000 </r>
       <r>   -0.1161    0.0000 </r>
       <r>   -0.0141    0.0000 </r>
       <r>    0.1707    0.0000 </r>
      </set>
      <set comment="kpoint 2">
       <r>  -25.7768    1.0000 </r>
       <r>  -23.6326    1.0000 </r>
       <r>  -13.4543    1.0000 </r>
       <r>  -11.8287    1.0000 </r>
       <r>  -10.2896    1.0000 </r>
       <r>   -8.5371    1.0000 </r>
       <r>   -7.6730    1.0000 </r>
       <r>   -6.1075    1.0000 </r>
       <r>   -1.5623    0.0000 </r>
       <r>   -0.1168    0.0000 </r>
       <r>   -0.0127    0.0000 </r>
       <r>    0.1701    0.0000 </r>
      </set>
     </set>
    </set>
   </array>
  </eigenvalues>
  <separator name="orbital magnetization" >
   <v name="MAGDIPOLOUT">      0.00000000      0.00000000      0.00000000</v>
  </separator>
  <dos>
   <i name="efermi">     -5.84587715 </i>
   <total>
    <array>
     <dimension dim="1">gridpoints</dimension>
     <dimension dim="2">spin</dimension>
     <field>energy</field>
     <field>total</field>
     <field>integrated</field>
     <set>
      <set comment="spin 1">
       <r>   -27.0741     0.0000     0.0000 </r>
       <r>   -26.9790     0.0000     0.0000 </r>
       <r>   -26.8839     0.0000     0.0000 </r>
       <r>   -26.7887     0.0000     0.0000 </r>
       <r>   -26.6936     0.0000     0.0000 </r>
       <r>   -26.5984     0.0000     0.0000 </r>
       <r>   -26.5033     0.0000     0.0000 </r>
       <r>   -26.4082     0.0000     0.0000 </r>
       <r>   -26.3130     0.0000     0.0000 </r>
       <r>   -26.2179     0.0000     0.0000 </r>
       <r>   -26.1227     0.0000     0.0000 </r>
       <r>   -26.0276     0.0000     0.0000 </r>
       <r>   -25.9325     0.0001     0.0000 </r>
       <r>   -25.8373     0.9124     0.0868 </r>
       <r>   -25.7422    16.6635     1.6722 </r>
       <r>   -25.6470     3.4429     1.9998 </r>
       <r>   -25.5519     0.0026     2.0000 </r>
       <r>   -25.4568     0.0000     2.0000 </r>
       <r>   -25.3616     0.0000     2.0000 </r>
       <r>   -25.2665     0.0000     2.0000 </r>
       <r>   -25.1713     0.0000     2.0000 </r>
       <r>   -25.0762     0.0000     2.0000 </r>
       <r>   -24.9810     0.0000     2.0000 </r>
       <r>   -24.8859     0.0000     2.0000 </r>
       <r>   -24.7908     0.0000     2.0000 </r>
       <r>   -24.6956     0.0000     2.0000 </r>
       <r>   -24.6005     0.0000     2.0000 </r>
       <r>   -24.5053     0.0000     2.0000 </r>
       <r>   -24.4102     0.0000     2.0000 </r>
       <r>   -24.3151     0.0000     2.0000 </r>
       <r>   -24.2199     0.0000     2.0000 </r>
       <r>   -24.1248     0.0000     2.0000 </r>
       <r>   -24.0296     0.0000     2.0000 </r>
       <r>   -23.9345     0.0000     2.0000 </r>
       <r>   -23.8394     0.0000     2.0000 </r>
       <r>   -23.7442     0.0168     2.0016 </r>
       <r>   -23.6491     6.7292     2.6418 </r>
       <r>   -23.5539    14.0019     3.9740 </r>
       <r>   -23.4588     0.2735     4.0000 </r>
       <r>   -23.3637     0.0000     4.0000 </r>
       <r>   -23.2685     0.0000     4.0000 </r>
       <r>   -23.1734     0.0000     4.0000 </r>
       <r>   -23.0782     0.0000     4.0000 </r>
       <r>   -22.9831     0.0000     4.0000 </r>
       <r>   -22.8880     0.0000     4.0000 </r>
       <r>   -22.7928     0.0000     4.0000 </r>
       <r>   -22.6977     0.0000     4.0000 </r>
       <r>   -22.6025     0.0000     4.0000 </r>
       <r>   -22.5074     0.0000     4.0000 </r>
       <r>   -22.4123     0.0000     4.0000 </r>
       <r>   -22.3171     0.0000     4.0000 </r>
       <r>   -22.2220     0.0000     4.0000 </r>
       <r>   -22.1268     0.0000     4.0000 </r>
       <r>   -22.0317     0.0000     4.0000 </r>
       <r>   -21.9365     0.0000     4.0000 </r>
       <r>   -21.8414     0.0000     4.0000 </r>
       <r>   -21.7463     0.0000     4.0000 </r>
       <r>   -21.6511     0.0000     4.0000 </r>
       <r>   -21.5560     0.0000     4.0000 </r>
       <r>   -21.4608     0.0000     4.0000 </r>
       <r>   -21.3657     0.0000     4.0000 </r>
       <r>   -21.2706     0.0000     4.0000 </r>
       <r>   -21.1754     0.0000     4.0000 </r>
       <r>   -21.0803     0.0000     4.0000 </r>
       <r>   -20.9851     0.0000     4.0000 </r>
       <r>   -20.8900     0.0000     4.0000 </r>
       <r>   -20.7949     0.0000     4.0000 </r>
       <r>   -20.6997     0.0000     4.0000 </r>
       <r>   -20.6046     0.0000     4.0000 </r>
       <r>   -20.5094     0.0000     4.0000 </r>
       <r>   -20.4143     0.0000     4.0000 </r>
       <r>   -20.3192     0.0000     4.0000 </r>
       <r>   -20.2240     0.0000     4.0000 </r>
       <r>   -20.1289     0.0000     4.0000 </r>
       <r>   -20.0337     0.0000     4.0000 </r>
       <r>   -19.9386     0.0000     4.0000 </r>
       <r>   -19.8435     0.0000     4.0000 </r>
       <r>   -19.7483     0.0000     4.0000 </r>
       <r>   -19.6532     0.0000     4.0000 </r>
       <r>   -19.5580     0.0000     4.0000 </r>
       <r>   -19.4629     0.0000     4.0000 </r>
       <r>   -19.3677     0.0000     4.0000 </r>
       <r>   -19.2726     0.0000     4.0000 </r>
       <r>   -19.1775     0.0000     4.0000 </r>
       <r>   -19.0823     0.0000     4.0000 </r>
       <r>   -18.9872     0.0000     4.0000 </r>
       <r>   -18.8920     0.0000     4.0000 </r>
       <r>   -18.7969     0.0000     4.0000 </r>
       <r>   -18.7018     0.0000     4.0000 </r>
       <r>   -18.6066     0.0000     4.0000 </r>
       <r>   -18.5115     0.0000     4.0000 </r>
       <r>   -18.4163     0.0000     4.0000 </r>
       <r>   -18.3212     0.0000     4.0000 </r>
       <r>   -18.2261     0.0000     4.0000 </r>
       <r>   -18.1309     0.0000     4.0000 </r>
       <r>   -18.0358     0.0000     4.0000 </r>
       <r>   -17.9406     0.0000     4.0000 </r>
       <r>   -17.8455     0.0000     4.0000 </r>
       <r>   -17.7504     0.0000     4.0000 </r>
       <r>   -17.6552     0.0000     4.0000 </r>
       <r>   -17.5601     0.0000     4.0000 </r>
       <r>   -17.4649     0.0000     4.0000 </r>
       <r>   -17.3698     0.0000     4.0000 </r>
       <r>   -17.2747     0.0000     4.0000 </r>
       <r>   -17.1795     0.0000     4.0000 </r>
       <r>   -17.0844     0.0000     4.0000 </r>
       <r>   -16.9892     0.0000     4.0000 </r>
       <r>   -16.8941     0.0000     4.0000 </r>
       <r>   -16.7989     0.0000     4.0000 </r>
       <r>   -16.7038     0.0000     4.0000 </r>
       <r>   -16.6087     0.0000     4.0000 </r>
       <r>   -16.5135     0.0000     4.0000 </r>
       <r>   -16.4184     0.0000     4.0000 </r>
       <r>   -16.3232     0.0000     4.0000 </r>
       <r>   -16.2281     0.0000     4.0000 </r>
       <r>   -16.1330     0.0000     4.0000 </r>
       <r>   -16.0378     0.0000     4.0000 </r>
       <r>   -15.9427     0.0000     4.0000 </r>
       <r>   -15.8475     0.0000     4.0000 </r>
       <r>   -15.7524     0.0000     4.0000 </r>
       <r>   -15.6573     0.0000     4.0000 </r>
       <r>   -15.5621     0.0000     4.0000 </r>
       <r>   -15.4670     0.0000     4.0000 </r>
       <r>   -15.3718     0.0000     4.0000 </r>
       <r>   -15.2767     0.0000     4.0000 </r>
       <r>   -15.1816     0.0000     4.0000 </r>
       <r>   -15.0864     0.0000     4.0000 </r>
       <r>   -14.9913     0.0000     4.0000 </r>
       <r>   -14.8961     0.0000     4.0000 </r>
       <r>   -14.8010     0.0000     4.0000 </r>
       <r>   -14.7059     0.0000     4.0000 </r>
       <r>   -14.6107     0.0000     4.0000 </r>
       <r>   -14.5156     0.0000     4.0000 </r>
       <r>   -14.4204     0.0000     4.0000 </r>
       <r>   -14.3253     0.0000     4.0000 </r>
       <r>   -14.2302     0.0000     4.0000 </r>
       <r>   -14.1350     0.0000     4.0000 </r>
       <r>   -14.0399     0.0000     4.0000 </r>
       <r>   -13.9447     0.0000     4.0000 </r>
       <r>   -13.8496     0.0000     4.0000 </r>
       <r>   -13.7544     0.0000     4.0000 </r>
       <r>   -13.6593     0.0000     4.0000 </r>
       <r>   -13.5642     0.0199     4.0019 </r>
       <r>   -13.4690     7.1018     4.6776 </r>
       <r>   -13.3739    13.6592     5.9771 </r>
       <r>   -13.2787     0.2406     6.0000 </r>
       <r>   -13.1836     0.0000     6.0000 </r>
       <r>   -13.0885     0.0000     6.0000 </r>
       <r>   -12.9933     0.0000     6.0000 </r>
       <r>   -12.8982     0.0000     6.0000 </r>
       <r>   -12.8030     0.0000     6.0000 </r>
       <r>   -12.7079     0.0000     6.0000 </r>
       <r>   -12.6128     0.0000     6.0000 </r>
       <r>   -12.5176     0.0000     6.0000 </r>
       <r>   -12.4225     0.0000     6.0000 </r>
       <r>   -12.3273     0.0000     6.0000 </r>
       <r>   -12.2322     0.0000     6.0000 </r>
       <r>   -12.1371     0.0000     6.0000 </r>
       <r>   -12.0419     0.0000     6.0000 </r>
       <r>   -11.9468     0.0088     6.0008 </r>
       <r>   -11.8516     5.4192     6.5164 </r>
       <r>   -11.7565    15.1611     7.9589 </r>
       <r>   -11.6614     0.4324     8.0000 </r>
       <r>   -11.5662     0.0000     8.0000 </r>
       <r>   -11.4711     0.0000     8.0000 </r>
       <r>   -11.3759     0.0000     8.0000 </r>
       <r>   -11.2808     0.0000     8.0000 </r>
       <r>   -11.1856     0.0000     8.0000 </r>
       <r>   -11.0905     0.0000     8.0000 </r>
       <r>   -10.9954     0.0000     8.0000 </r>
       <r>   -10.9002     0.0000     8.0000 </r>
       <r>   -10.8051     0.0000     8.0000 </r>
       <r>   -10.7099     0.0000     8.0000 </r>
       <r>   -10.6148     0.0000     8.0000 </r>
       <r>   -10.5197     0.0000     8.0000 </r>
       <r>   -10.4245     0.0014     8.0001 </r>
       <r>   -10.3294     2.7332     8.2602 </r>
       <r>   -10.2342    17.0510     9.8824 </r>
       <r>   -10.1391     1.2356    10.0000 </r>
       <r>   -10.0440     0.0002    10.0000 </r>
       <r>    -9.9488     0.0000    10.0000 </r>
       <r>    -9.8537     0.0000    10.0000 </r>
       <r>    -9.7585     0.0000    10.0000 </r>
       <r>    -9.6634     0.0000    10.0000 </r>
       <r>    -9.5683     0.0000    10.0000 </r>
       <r>    -9.4731     0.0000    10.0000 </r>
       <r>    -9.3780     0.0000    10.0000 </r>
       <r>    -9.2828     0.0000    10.0000 </r>
       <r>    -9.1877     0.0000    10.0000 </r>
       <r>    -9.0926     0.0000    10.0000 </r>
       <r>    -8.9974     0.0000    10.0000 </r>
       <r>    -8.9023     0.0000    10.0000 </r>
       <r>    -8.8071     0.0000    10.0000 </r>
       <r>    -8.7120     0.0000    10.0000 </r>
       <r>    -8.6168     0.2526    10.0240 </r>
       <r>    -8.5217    13.7899    11.3360 </r>
       <r>    -8.4266     6.9603    11.9982 </r>
       <r>    -8.3314     0.0187    12.0000 </r>
       <r>    -8.2363     0.0000    12.0000 </r>
       <r>    -8.1411     0.0000    12.0000 </r>
       <r>    -8.0460     0.0000    12.0000 </r>
       <r>    -7.9509     0.0000    12.0000 </r>
       <r>    -7.8557     0.0000    12.0000 </r>
       <r>    -7.7606     0.1397    12.0133 </r>
       <r>    -7.6654    12.1606    13.1703 </r>
       <r>    -7.5703     8.6828    13.9963 </r>
       <r>    -7.4752     0.0385    14.0000 </r>
       <r>    -7.3800     0.0000    14.0000 </r>
       <r>    -7.2849     0.0000    14.0000 </r>
       <r>    -7.1897     0.0000    14.0000 </r>
       <r>    -7.0946     0.0000    14.0000 </r>
       <r>    -6.9995     0.0000    14.0000 </r>
       <r>    -6.9043     0.0000    14.0000 </r>
       <r>    -6.8092     0.0000    14.0000 </r>
       <r>    -6.7140     0.0000    14.0000 </r>
       <r>    -6.6189     0.0000    14.0000 </r>
       <r>    -6.5238     0.0000    14.0000 </r>
       <r>    -6.4286     0.0000    14.0000 </r>
       <r>    -6.3335     0.0000    14.0000 </r>
       <r>    -6.2383     0.0023    14.0002 </r>
       <r>    -6.1432     3.2892    14.3131 </r>
       <r>    -6.0481    16.7578    15.9075 </r>
       <r>    -5.9529     0.9721    16.0000 </r>
       <r>    -5.8578     0.0001    16.0000 </r>
       <r>    -5.7626     0.0000    16.0000 </r>
       <r>    -5.6675     0.0000    16.0000 </r>
       <r>    -5.5723     0.0000    16.0000 </r>
       <r>    -5.4772     0.0000    16.0000 </r>
       <r>    -5.3821     0.0000    16.0000 </r>
       <r>    -5.2869     0.0000    16.0000 </r>
       <r>    -5.1918     0.0000    16.0000 </r>
       <r>    -5.0966     0.0000    16.0000 </r>
       <r>    -5.0015     0.0000    16.0000 </r>
       <r>    -4.9064     0.0000    16.0000 </r>
       <r>    -4.8112     0.0000    16.0000 </r>
       <r>    -4.7161     0.0000    16.0000 </r>
       <r>    -4.6209     0.0000    16.0000 </r>
       <r>    -4.5258     0.0000    16.0000 </r>
       <r>    -4.4307     0.0000    16.0000 </r>
       <r>    -4.3355     0.0000    16.0000 </r>
       <r>    -4.2404     0.0000    16.0000 </r>
       <r>    -4.1452     0.0000    16.0000 </r>
       <r>    -4.0501     0.0000    16.0000 </r>
       <r>    -3.9550     0.0000    16.0000 </r>
       <r>    -3.8598     0.0000    16.0000 </r>
       <r>    -3.7647     0.0000    16.0000 </r>
       <r>    -3.6695     0.0000    16.0000 </r>
       <r>    -3.5744     0.0000    16.0000 </r>
       <r>    -3.4793     0.0000    16.0000 </r>
       <r>    -3.3841     0.0000    16.0000 </r>
       <r>    -3.2890     0.0000    16.0000 </r>
       <r>    -3.1938     0.0000    16.0000 </r>
       <r>    -3.0987     0.0000    16.0000 </r>
       <r>    -3.0035     0.0000    16.0000 </r>
       <r>    -2.9084     0.0000    16.0000 </r>
       <r>    -2.8133     0.0000    16.0000 </r>
       <r>    -2.7181     0.0000    16.0000 </r>
       <r>    -2.6230     0.0000    16.0000 </r>
       <r>    -2.5278     0.0000    16.0000 </r>
       <r>    -2.4327     0.0000    16.0000 </r>
       <r>    -2.3376     0.0000    16.0000 </r>
       <r>    -2.2424     0.0000    16.0000 </r>
       <r>    -2.1473     0.0000    16.0000 </r>
       <r>    -2.0521     0.0000    16.0000 </r>
       <r>    -1.9570     0.0000    16.0000 </r>
       <r>    -1.8619     0.0000    16.0000 </r>
       <r>    -1.7667     0.0000    16.0000 </r>
       <r>    -1.6716     0.0209    16.0020 </r>
       <r>    -1.5764     7.2184    16.6888 </r>
       <r>    -1.4813    13.5510    17.9780 </r>
       <r>    -1.3862     0.2312    18.0000 </r>
       <r>    -1.2910     0.0000    18.0000 </r>
       <r>    -1.1959     0.0000    18.0000 </r>
       <r>    -1.1007     0.0000    18.0000 </r>
       <r>    -1.0056     0.0000    18.0000 </r>
       <r>    -0.9105     0.0000    18.0000 </r>
       <r>    -0.8153     0.0000    18.0000 </r>
       <r>    -0.7202     0.0000    18.0000 </r>
       <r>    -0.6250     0.0000    18.0000 </r>
       <r>    -0.5299     0.0000    18.0000 </r>
       <r>    -0.4348     0.0000    18.0000 </r>
       <r>    -0.3396     0.0000    18.0000 </r>
       <r>    -0.2445     0.0031    18.0003 </r>
       <r>    -0.1493     3.7022    18.3525 </r>
       <r>    -0.0542    19.1063    20.1703 </r>
       <r>     0.0410    17.9265    21.8758 </r>
       <r>     0.1361     4.7954    22.3321 </r>
       <r>     0.2312    16.6350    23.9147 </r>
       <r>     0.3264     0.8959    24.0000 </r>
       <r>     0.4215     0.0001    24.0000 </r>
       <r>     0.5167     0.0000    24.0000 </r>
       <r>     0.6118     0.0000    24.0000 </r>
       <r>     0.7069     0.0000    24.0000 </r>
       <r>     0.8021     0.0000    24.0000 </r>
       <r>     0.8972     0.0000    24.0000 </r>
       <r>     0.9924     0.0000    24.0000 </r>
       <r>     1.0875     0.0000    24.0000 </r>
       <r>     1.1826     0.0000    24.0000 </r>
       <r>     1.2778     0.0000    24.0000 </r>
       <r>     1.3729     0.0000    24.0000 </r>
       <r>     1.4681     0.0000    24.0000 </r>
      </set>
     </set>
    </array>
   </total>
  </dos>
 </calculation>
 <structure name="finalpos" >
  <crystal>
   <varray name="basis" >
    <v>      30.00000000       0.00000000       0.00000000 </v>
    <v>       0.00000000      10.00000000       0.00000000 </v>
    <v>       0.00000000       0.00000000      10.00000000 </v>
   </varray>
   <i name="volume">   3000.00000000 </i>
   <varray name="rec_basis" >
    <v>       0.03333333       0.00000000       0.00000000 </v>
    <v>       0.00000000       0.10000000       0.00000000 </v>
    <v>       0.00000000       0.00000000       0.10000000 </v>
   </varray>
  </crystal>
  <varray name="positions" >
   <v>       0.04486896       0.15710957       0.17600000 </v>
   <v>       0.95513104       0.15710957       0.17600000 </v>
   <v>       0.05554413       0.25541218       0.17439231 </v>
   <v>       0.01147255       0.16672783       0.17649328 </v>
   <v>       0.94612303       0.09941802       0.25610440 </v>
   <v>       0.94624850       0.09907990       0.09607226 </v>
  </varray>
 </structure>
</modeling>
