
     Program PWSCF v.5.4.0 starts on 22Sep2019 at 18:20:40 

     This program is part of the open-source Quantum ESPRESSO suite
     for quantum simulation of materials; please cite
         "P. Giannozzi et al., J. Phys.:Condens. Matter 21 395502 (2009);
          URL http://www.quantum-espresso.org", 
     in publications or presentations arising from this work. More details at
     http://www.quantum-espresso.org/quote

           HOST :    @host@
           ARCH :    
             CC :    cc
            CPP :    cpp
            F90 :    mpif90
            F77 :    gfortran
         DFLAGS :    -D__GFORTRAN -D__STD_F95 -D__FFTW3 -D__MPI -D__PARA
      BLAS LIBS :    -lopenblas
    LAPACK LIBS :    -lopenblas
       FFT LIBS :    -lfftw3
      MASS LIBS :    

     Parallel version (MPI), running on    28 processors
     R & G space division:  proc/nbgrp/npool/nimage =      28
     Waiting for input...
     Reading input from standard input
Warning: card &IONS ignored
Warning: card / ignored
Warning: card &CELL ignored
Warning: card / ignored

     Current dimensions of program PWSCF are:
     Max number of different atomic species (ntypx) = 10
     Max number of k-points (npk) =  40000
     Max angular momentum in pseudopotentials (lmaxx) =  3

     IMPORTANT: XC functional enforced from input :
     Exchange-correlation      = PBE ( 1  4  3  4 0 0)
     Any further DFT definition will be discarded
     Please, verify this is what you really want


     gamma-point specific algorithms are used

     Subspace diagonalization in iterative solution of the eigenvalue problem:
     a serial algorithm will be used


     Parallelization info
     --------------------
     sticks:   dense  smooth     PW     G-vecs:    dense   smooth      PW
     Min         445     445    110                37558    37558    4694
     Max         448     448    112                37564    37564    4708
     Sum       12517   12517   3125              1051747  1051747  131683
     Tot        6259    6259   1563



     bravais-lattice index     =            1
     lattice parameter (alat)  =      18.8973  a.u.
     unit-cell volume          =    6748.3346 (a.u.)^3
     number of atoms/cell      =            5
     number of atomic types    =            2
     number of electrons       =         8.00
     number of Kohn-Sham states=            4
     kinetic-energy cutoff     =     110.0000  Ry
     charge density cutoff     =     440.0000  Ry
     convergence threshold     =      1.0E-06
     mixing beta               =       0.5000
     number of iterations used =            8  plain     mixing
     Exchange-correlation      = PBE ( 1  4  3  4 0 0)

     celldm(1)=  18.897261  celldm(2)=   0.000000  celldm(3)=   0.000000
     celldm(4)=   0.000000  celldm(5)=   0.000000  celldm(6)=   0.000000

     crystal axes: (cart. coord. in units of alat)
               a(1) = (   1.000000   0.000000   0.000000 )  
               a(2) = (   0.000000   1.000000   0.000000 )  
               a(3) = (   0.000000   0.000000   1.000000 )  

     reciprocal axes: (cart. coord. in units 2 pi/alat)
               b(1) = (  1.000000  0.000000  0.000000 )  
               b(2) = (  0.000000  1.000000  0.000000 )  
               b(3) = (  0.000000  0.000000  1.000000 )  


     PseudoPot. # 1 for  H read from file:
     ../pseudo/H.tm.pbe.UPF
     MD5 check sum: 4b614d66af87240b7a5107bfa527a767
     Pseudo is Norm-conserving, Zval =  1.0
     Generated using "atomic" code by A. Dal Corso  v.5.2.0
     Using radial grid of  929 points,  0 beta functions with: 

     PseudoPot. # 2 for  C read from file:
     ../pseudo/C.tm.pbe.UPF
     MD5 check sum: a4f27fcb9b24331b00ace8e732a7e062
     Pseudo is Norm-conserving, Zval =  4.0
     Generated using "atomic" code by A. Dal Corso  v.5.2.0
     Using radial grid of 1073 points,  1 beta functions with: 
                l(1) =   1

     atomic species   valence    mass     pseudopotential
        H              1.00     1.00000      H( 1.00)
        C              4.00     1.00000      C( 1.00)

     No symmetry found



   Cartesian axes

     site n.     atom                  positions (alat units)
         1           H   tau(   1) = (   0.5374090   0.4288760   0.3538490  )
         2           H   tau(   2) = (   0.4061290   0.4990870   0.4476990  )
         3           H   tau(   3) = (   0.5643480   0.5700900   0.4535270  )
         4           H   tau(   4) = (   0.5326600   0.4103190   0.5305950  )
         5           C   tau(   5) = (   0.5122720   0.4748240   0.4469720  )

     number of k points=     1
                       cart. coord. in units 2pi/alat
        k(    1) = (   0.0000000   0.0000000   0.0000000), wk =   2.0000000

     Dense  grid:   525874 G-vectors     FFT dimensions: ( 128, 128, 128)

     Largest allocated arrays     est. size (Mb)     dimensions
        Kohn-Sham Wavefunctions         0.14 Mb     (    2354,    4)
        NL pseudopotentials             0.11 Mb     (    2354,    3)
        Each V/rho on FFT grid          1.25 Mb     (   81920)
        Each G-vector array             0.14 Mb     (   18782)
        G-vector shells                 0.02 Mb     (    2785)
     Largest temporary arrays     est. size (Mb)     dimensions
        Auxiliary wavefunctions         0.29 Mb     (    2354,   16)
        Each subspace H/S matrix        0.00 Mb     (      16,   16)
        Each <psi_i|beta_j> matrix      0.00 Mb     (       3,    4)
        Arrays for rho mixing          10.00 Mb     (   81920,    8)

     Initial potential from superposition of free atoms
     Check: negative starting charge=   -0.000386

     starting charge    7.99992, renormalised to    8.00000

     negative rho (up, down):  3.864E-04 0.000E+00
     Starting wfc are    8 randomized atomic wfcs

     total cpu time spent up to now is        2.8 secs

     per-process dynamical memory:   430.8 Mb

     Self-consistent Calculation

     iteration #  1     ecut=   110.00 Ry     beta=0.50
     Davidson diagonalization with overlap
     ethr =  1.00E-02,  avg # of iterations =  2.0

     negative rho (up, down):  1.818E-04 0.000E+00

     total cpu time spent up to now is        3.4 secs

     total energy              =     -16.01380282 Ry
     Harris-Foulkes estimate   =     -16.42612461 Ry
     estimated scf accuracy    <       0.73162793 Ry

     iteration #  2     ecut=   110.00 Ry     beta=0.50
     Davidson diagonalization with overlap
     ethr =  9.15E-03,  avg # of iterations =  2.0

     negative rho (up, down):  9.421E-05 0.000E+00

     total cpu time spent up to now is        3.9 secs

     total energy              =     -16.15250663 Ry
     Harris-Foulkes estimate   =     -16.17086967 Ry
     estimated scf accuracy    <       0.04838947 Ry

     iteration #  3     ecut=   110.00 Ry     beta=0.50
     Davidson diagonalization with overlap
     ethr =  6.05E-04,  avg # of iterations =  1.0

     negative rho (up, down):  4.347E-06 0.000E+00

     total cpu time spent up to now is        4.3 secs

     total energy              =     -16.15040692 Ry
     Harris-Foulkes estimate   =     -16.15581250 Ry
     estimated scf accuracy    <       0.01132981 Ry

     iteration #  4     ecut=   110.00 Ry     beta=0.50
     Davidson diagonalization with overlap
     ethr =  1.42E-04,  avg # of iterations =  2.0

     negative rho (up, down):  4.903E-06 0.000E+00

     total cpu time spent up to now is        4.8 secs

     total energy              =     -16.15221060 Ry
     Harris-Foulkes estimate   =     -16.15413139 Ry
     estimated scf accuracy    <       0.00442447 Ry

     iteration #  5     ecut=   110.00 Ry     beta=0.50
     Davidson diagonalization with overlap
     ethr =  5.53E-05,  avg # of iterations =  1.0

     negative rho (up, down):  1.838E-06 0.000E+00

     total cpu time spent up to now is        5.2 secs

     total energy              =     -16.15239773 Ry
     Harris-Foulkes estimate   =     -16.15257873 Ry
     estimated scf accuracy    <       0.00034154 Ry

     iteration #  6     ecut=   110.00 Ry     beta=0.50
     Davidson diagonalization with overlap
     ethr =  4.27E-06,  avg # of iterations =  3.0

     negative rho (up, down):  4.421E-08 0.000E+00

     total cpu time spent up to now is        5.9 secs

     total energy              =     -16.15258698 Ry
     Harris-Foulkes estimate   =     -16.15262163 Ry
     estimated scf accuracy    <       0.00007387 Ry

     iteration #  7     ecut=   110.00 Ry     beta=0.50
     Davidson diagonalization with overlap
     ethr =  9.23E-07,  avg # of iterations =  2.0

     total cpu time spent up to now is        6.4 secs

     total energy              =     -16.15259965 Ry
     Harris-Foulkes estimate   =     -16.15259999 Ry
     estimated scf accuracy    <       0.00000109 Ry

     iteration #  8     ecut=   110.00 Ry     beta=0.50
     Davidson diagonalization with overlap
     ethr =  1.36E-08,  avg # of iterations =  1.0

     total cpu time spent up to now is        6.8 secs

     End of self-consistent calculation

          k = 0.0000 0.0000 0.0000 ( 65842 PWs)   bands (ev):

   -16.9510  -9.5112  -9.3508  -9.0722

     highest occupied level (ev):    -9.0722

!    total energy              =     -16.15259946 Ry
     Harris-Foulkes estimate   =     -16.15259971 Ry
     estimated scf accuracy    <       0.00000038 Ry

     The total energy is the sum of the following terms:

     one-electron contribution =     -40.70510113 Ry
     hartree contribution      =      21.18372958 Ry
     xc contribution           =      -6.38574357 Ry
     ewald contribution        =       9.75451567 Ry

     convergence has been achieved in   8 iterations

     Forces acting on atoms (Ry/au):

     atom    1 type  1   force =     0.00874841   -0.02114625   -0.02965722
     atom    2 type  1   force =    -0.01387232   -0.00253530   -0.00248985
     atom    3 type  1   force =     0.01389910    0.00571660    0.00831505
     atom    4 type  1   force =     0.01271792   -0.01324461    0.01856804
     atom    5 type  2   force =    -0.02149311    0.03120956    0.00526398

     Total force =     0.063631     Total SCF correction =     0.000387


     entering subroutine stress ...

          total   stress  (Ry/bohr**3)                   (kbar)     P=    0.99
   0.00000549  -0.00000066   0.00000092          0.81     -0.10      0.14
  -0.00000066   0.00000447   0.00000251         -0.10      0.66      0.37
   0.00000092   0.00000251   0.00001023          0.14      0.37      1.51


     init_run     :      2.44s CPU      2.45s WALL (       1 calls)
     electrons    :      3.87s CPU      3.93s WALL (       1 calls)
     forces       :      1.05s CPU      1.05s WALL (       1 calls)
     stress       :      1.11s CPU      1.11s WALL (       1 calls)

     Called by init_run:
     wfcinit      :      0.11s CPU      0.11s WALL (       1 calls)
     potinit      :      0.94s CPU      0.95s WALL (       1 calls)

     Called by electrons:
     c_bands      :      1.63s CPU      1.65s WALL (       8 calls)
     sum_band     :      0.44s CPU      0.45s WALL (       8 calls)
     v_of_rho     :      1.76s CPU      1.80s WALL (       9 calls)
     mix_rho      :      0.21s CPU      0.21s WALL (       8 calls)

     Called by c_bands:
     init_us_2    :      0.04s CPU      0.04s WALL (      17 calls)
     regterg      :      1.60s CPU      1.62s WALL (       8 calls)

     Called by sum_band:

     Called by *egterg:
     h_psi        :      1.66s CPU      1.67s WALL (      23 calls)
     g_psi        :      0.01s CPU      0.01s WALL (      14 calls)
     rdiaghg      :      0.00s CPU      0.00s WALL (      22 calls)

     Called by h_psi:
     add_vuspsi   :      0.00s CPU      0.00s WALL (      23 calls)

     General routines
     calbec       :      0.39s CPU      0.39s WALL (      28 calls)
     fft          :      1.73s CPU      1.78s WALL (     106 calls)
     fftw         :      1.28s CPU      1.30s WALL (     112 calls)

     Parallel routines
     fft_scatter  :      1.36s CPU      1.40s WALL (     218 calls)

     PWSCF        :     8.84s CPU         8.95s WALL


   This run was terminated on:  18:20:49  22Sep2019            

=------------------------------------------------------------------------------=
   JOB DONE.
=------------------------------------------------------------------------------=
