1.642103767395019531e+01 0.000000000000000000e+00 0.000000000000000000e+00 0.000000000000000000e+00 1.642103767395019531e+01 0.000000000000000000e+00 0.000000000000000000e+00 0.000000000000000000e+00 1.642103767395019531e+01
1.660745811462402344e+01 0.000000000000000000e+00 0.000000000000000000e+00 0.000000000000000000e+00 1.660745811462402344e+01 0.000000000000000000e+00 0.000000000000000000e+00 0.000000000000000000e+00 1.660745811462402344e+01
1.656003379821777344e+01 0.000000000000000000e+00 0.000000000000000000e+00 0.000000000000000000e+00 1.656003379821777344e+01 0.000000000000000000e+00 0.000000000000000000e+00 0.000000000000000000e+00 1.656003379821777344e+01
1.554432010650634766e+01 0.000000000000000000e+00 0.000000000000000000e+00 0.000000000000000000e+00 1.554432010650634766e+01 0.000000000000000000e+00 0.000000000000000000e+00 0.000000000000000000e+00 1.554432010650634766e+01
1.558757400512695312e+01 0.000000000000000000e+00 0.000000000000000000e+00 0.000000000000000000e+00 1.558757400512695312e+01 0.000000000000000000e+00 0.000000000000000000e+00 0.000000000000000000e+00 1.558757400512695312e+01
1.607876014709472656e+01 0.000000000000000000e+00 0.000000000000000000e+00 0.000000000000000000e+00 1.607876014709472656e+01 0.000000000000000000e+00 0.000000000000000000e+00 0.000000000000000000e+00 1.607876014709472656e+01
1.666373634338378906e+01 0.000000000000000000e+00 0.000000000000000000e+00 0.000000000000000000e+00 1.666373634338378906e+01 0.000000000000000000e+00 0.000000000000000000e+00 0.000000000000000000e+00 1.666373634338378906e+01
1.550070381164550781e+01 0.000000000000000000e+00 0.000000000000000000e+00 0.000000000000000000e+00 1.550070381164550781e+01 0.000000000000000000e+00 0.000000000000000000e+00 0.000000000000000000e+00 1.550070381164550781e+01
1.559256935119628906e+01 0.000000000000000000e+00 0.000000000000000000e+00 0.000000000000000000e+00 1.559256935119628906e+01 0.000000000000000000e+00 0.000000000000000000e+00 0.000000000000000000e+00 1.559256935119628906e+01
1.607843780517578125e+01 0.000000000000000000e+00 0.000000000000000000e+00 0.000000000000000000e+00 1.607843780517578125e+01 0.000000000000000000e+00 0.000000000000000000e+00 0.000000000000000000e+00 1.607843780517578125e+01
1.629965400695800781e+01 0.000000000000000000e+00 0.000000000000000000e+00 0.000000000000000000e+00 1.629965400695800781e+01 0.000000000000000000e+00 0.000000000000000000e+00 0.000000000000000000e+00 1.629965400695800781e+01
1.544944572448730469e+01 0.000000000000000000e+00 0.000000000000000000e+00 0.000000000000000000e+00 1.544944572448730469e+01 0.000000000000000000e+00 0.000000000000000000e+00 0.000000000000000000e+00 1.544944572448730469e+01
1.648468971252441406e+01 0.000000000000000000e+00 0.000000000000000000e+00 0.000000000000000000e+00 1.648468971252441406e+01 0.000000000000000000e+00 0.000000000000000000e+00 0.000000000000000000e+00 1.648468971252441406e+01
1.564260482788085938e+01 0.000000000000000000e+00 0.000000000000000000e+00 0.000000000000000000e+00 1.564260482788085938e+01 0.000000000000000000e+00 0.000000000000000000e+00 0.000000000000000000e+00 1.564260482788085938e+01
1.650960731506347656e+01 0.000000000000000000e+00 0.000000000000000000e+00 0.000000000000000000e+00 1.650960731506347656e+01 0.000000000000000000e+00 0.000000000000000000e+00 0.000000000000000000e+00 1.650960731506347656e+01
1.634579086303710938e+01 0.000000000000000000e+00 0.000000000000000000e+00 0.000000000000000000e+00 1.634579086303710938e+01 0.000000000000000000e+00 0.000000000000000000e+00 0.000000000000000000e+00 1.634579086303710938e+01
1.643386077880859375e+01 0.000000000000000000e+00 0.000000000000000000e+00 0.000000000000000000e+00 1.643386077880859375e+01 0.000000000000000000e+00 0.000000000000000000e+00 0.000000000000000000e+00 1.643386077880859375e+01
1.650855827331542969e+01 0.000000000000000000e+00 0.000000000000000000e+00 0.000000000000000000e+00 1.650855827331542969e+01 0.000000000000000000e+00 0.000000000000000000e+00 0.000000000000000000e+00 1.650855827331542969e+01
1.632767486572265625e+01 0.000000000000000000e+00 0.000000000000000000e+00 0.000000000000000000e+00 1.632767486572265625e+01 0.000000000000000000e+00 0.000000000000000000e+00 0.000000000000000000e+00 1.632767486572265625e+01
1.551283454895019531e+01 0.000000000000000000e+00 0.000000000000000000e+00 0.000000000000000000e+00 1.551283454895019531e+01 0.000000000000000000e+00 0.000000000000000000e+00 0.000000000000000000e+00 1.551283454895019531e+01
1.616762161254882812e+01 0.000000000000000000e+00 0.000000000000000000e+00 0.000000000000000000e+00 1.616762161254882812e+01 0.000000000000000000e+00 0.000000000000000000e+00 0.000000000000000000e+00 1.616762161254882812e+01
1.641342544555664062e+01 0.000000000000000000e+00 0.000000000000000000e+00 0.000000000000000000e+00 1.641342544555664062e+01 0.000000000000000000e+00 0.000000000000000000e+00 0.000000000000000000e+00 1.641342544555664062e+01
1.560530662536621094e+01 0.000000000000000000e+00 0.000000000000000000e+00 0.000000000000000000e+00 1.560530662536621094e+01 0.000000000000000000e+00 0.000000000000000000e+00 0.000000000000000000e+00 1.560530662536621094e+01
1.648358154296875000e+01 0.000000000000000000e+00 0.000000000000000000e+00 0.000000000000000000e+00 1.648358154296875000e+01 0.000000000000000000e+00 0.000000000000000000e+00 0.000000000000000000e+00 1.648358154296875000e+01
1.554076766967773438e+01 0.000000000000000000e+00 0.000000000000000000e+00 0.000000000000000000e+00 1.554076766967773438e+01 0.000000000000000000e+00 0.000000000000000000e+00 0.000000000000000000e+00 1.554076766967773438e+01
1.619238281250000000e+01 0.000000000000000000e+00 0.000000000000000000e+00 0.000000000000000000e+00 1.619238281250000000e+01 0.000000000000000000e+00 0.000000000000000000e+00 0.000000000000000000e+00 1.619238281250000000e+01
1.639623451232910156e+01 0.000000000000000000e+00 0.000000000000000000e+00 0.000000000000000000e+00 1.639623451232910156e+01 0.000000000000000000e+00 0.000000000000000000e+00 0.000000000000000000e+00 1.639623451232910156e+01
1.631843566894531250e+01 0.000000000000000000e+00 0.000000000000000000e+00 0.000000000000000000e+00 1.631843566894531250e+01 0.000000000000000000e+00 0.000000000000000000e+00 0.000000000000000000e+00 1.631843566894531250e+01
1.637913894653320312e+01 0.000000000000000000e+00 0.000000000000000000e+00 0.000000000000000000e+00 1.637913894653320312e+01 0.000000000000000000e+00 0.000000000000000000e+00 0.000000000000000000e+00 1.637913894653320312e+01
1.553311920166015625e+01 0.000000000000000000e+00 0.000000000000000000e+00 0.000000000000000000e+00 1.553311920166015625e+01 0.000000000000000000e+00 0.000000000000000000e+00 0.000000000000000000e+00 1.553311920166015625e+01
1.631085395812988281e+01 0.000000000000000000e+00 0.000000000000000000e+00 0.000000000000000000e+00 1.631085395812988281e+01 0.000000000000000000e+00 0.000000000000000000e+00 0.000000000000000000e+00 1.631085395812988281e+01
1.647712898254394531e+01 0.000000000000000000e+00 0.000000000000000000e+00 0.000000000000000000e+00 1.647712898254394531e+01 0.000000000000000000e+00 0.000000000000000000e+00 0.000000000000000000e+00 1.647712898254394531e+01
1.647652244567871094e+01 0.000000000000000000e+00 0.000000000000000000e+00 0.000000000000000000e+00 1.647652244567871094e+01 0.000000000000000000e+00 0.000000000000000000e+00 0.000000000000000000e+00 1.647652244567871094e+01
1.543001270294189453e+01 0.000000000000000000e+00 0.000000000000000000e+00 0.000000000000000000e+00 1.543001270294189453e+01 0.000000000000000000e+00 0.000000000000000000e+00 0.000000000000000000e+00 1.543001270294189453e+01
1.666528892517089844e+01 0.000000000000000000e+00 0.000000000000000000e+00 0.000000000000000000e+00 1.666528892517089844e+01 0.000000000000000000e+00 0.000000000000000000e+00 0.000000000000000000e+00 1.666528892517089844e+01
1.658132553100585938e+01 0.000000000000000000e+00 0.000000000000000000e+00 0.000000000000000000e+00 1.658132553100585938e+01 0.000000000000000000e+00 0.000000000000000000e+00 0.000000000000000000e+00 1.658132553100585938e+01
1.637681198120117188e+01 0.000000000000000000e+00 0.000000000000000000e+00 0.000000000000000000e+00 1.637681198120117188e+01 0.000000000000000000e+00 0.000000000000000000e+00 0.000000000000000000e+00 1.637681198120117188e+01
1.658434677124023438e+01 0.000000000000000000e+00 0.000000000000000000e+00 0.000000000000000000e+00 1.658434677124023438e+01 0.000000000000000000e+00 0.000000000000000000e+00 0.000000000000000000e+00 1.658434677124023438e+01
1.541146183013916016e+01 0.000000000000000000e+00 0.000000000000000000e+00 0.000000000000000000e+00 1.541146183013916016e+01 0.000000000000000000e+00 0.000000000000000000e+00 0.000000000000000000e+00 1.541146183013916016e+01
1.652087020874023438e+01 0.000000000000000000e+00 0.000000000000000000e+00 0.000000000000000000e+00 1.652087020874023438e+01 0.000000000000000000e+00 0.000000000000000000e+00 0.000000000000000000e+00 1.652087020874023438e+01
1.649485397338867188e+01 0.000000000000000000e+00 0.000000000000000000e+00 0.000000000000000000e+00 1.649485397338867188e+01 0.000000000000000000e+00 0.000000000000000000e+00 0.000000000000000000e+00 1.649485397338867188e+01
1.640030670166015625e+01 0.000000000000000000e+00 0.000000000000000000e+00 0.000000000000000000e+00 1.640030670166015625e+01 0.000000000000000000e+00 0.000000000000000000e+00 0.000000000000000000e+00 1.640030670166015625e+01
1.620973205566406250e+01 0.000000000000000000e+00 0.000000000000000000e+00 0.000000000000000000e+00 1.620973205566406250e+01 0.000000000000000000e+00 0.000000000000000000e+00 0.000000000000000000e+00 1.620973205566406250e+01
1.548704624176025391e+01 0.000000000000000000e+00 0.000000000000000000e+00 0.000000000000000000e+00 1.548704624176025391e+01 0.000000000000000000e+00 0.000000000000000000e+00 0.000000000000000000e+00 1.548704624176025391e+01
1.686482620239257812e+01 0.000000000000000000e+00 0.000000000000000000e+00 0.000000000000000000e+00 1.686482620239257812e+01 0.000000000000000000e+00 0.000000000000000000e+00 0.000000000000000000e+00 1.686482620239257812e+01
1.644347572326660156e+01 0.000000000000000000e+00 0.000000000000000000e+00 0.000000000000000000e+00 1.644347572326660156e+01 0.000000000000000000e+00 0.000000000000000000e+00 0.000000000000000000e+00 1.644347572326660156e+01
1.550841426849365234e+01 0.000000000000000000e+00 0.000000000000000000e+00 0.000000000000000000e+00 1.550841426849365234e+01 0.000000000000000000e+00 0.000000000000000000e+00 0.000000000000000000e+00 1.550841426849365234e+01
1.570344638824462891e+01 0.000000000000000000e+00 0.000000000000000000e+00 0.000000000000000000e+00 1.570344638824462891e+01 0.000000000000000000e+00 0.000000000000000000e+00 0.000000000000000000e+00 1.570344638824462891e+01
1.657102966308593750e+01 0.000000000000000000e+00 0.000000000000000000e+00 0.000000000000000000e+00 1.657102966308593750e+01 0.000000000000000000e+00 0.000000000000000000e+00 0.000000000000000000e+00 1.657102966308593750e+01
1.541313648223876953e+01 0.000000000000000000e+00 0.000000000000000000e+00 0.000000000000000000e+00 1.541313648223876953e+01 0.000000000000000000e+00 0.000000000000000000e+00 0.000000000000000000e+00 1.541313648223876953e+01
1.622996902465820312e+01 0.000000000000000000e+00 0.000000000000000000e+00 0.000000000000000000e+00 1.622996902465820312e+01 0.000000000000000000e+00 0.000000000000000000e+00 0.000000000000000000e+00 1.622996902465820312e+01
1.636575508117675781e+01 0.000000000000000000e+00 0.000000000000000000e+00 0.000000000000000000e+00 1.636575508117675781e+01 0.000000000000000000e+00 0.000000000000000000e+00 0.000000000000000000e+00 1.636575508117675781e+01
1.657734870910644531e+01 0.000000000000000000e+00 0.000000000000000000e+00 0.000000000000000000e+00 1.657734870910644531e+01 0.000000000000000000e+00 0.000000000000000000e+00 0.000000000000000000e+00 1.657734870910644531e+01
1.685863685607910156e+01 0.000000000000000000e+00 0.000000000000000000e+00 0.000000000000000000e+00 1.685863685607910156e+01 0.000000000000000000e+00 0.000000000000000000e+00 0.000000000000000000e+00 1.685863685607910156e+01
1.550413227081298828e+01 0.000000000000000000e+00 0.000000000000000000e+00 0.000000000000000000e+00 1.550413227081298828e+01 0.000000000000000000e+00 0.000000000000000000e+00 0.000000000000000000e+00 1.550413227081298828e+01
1.673493194580078125e+01 0.000000000000000000e+00 0.000000000000000000e+00 0.000000000000000000e+00 1.673493194580078125e+01 0.000000000000000000e+00 0.000000000000000000e+00 0.000000000000000000e+00 1.673493194580078125e+01
1.667246818542480469e+01 0.000000000000000000e+00 0.000000000000000000e+00 0.000000000000000000e+00 1.667246818542480469e+01 0.000000000000000000e+00 0.000000000000000000e+00 0.000000000000000000e+00 1.667246818542480469e+01
1.548478889465332031e+01 0.000000000000000000e+00 0.000000000000000000e+00 0.000000000000000000e+00 1.548478889465332031e+01 0.000000000000000000e+00 0.000000000000000000e+00 0.000000000000000000e+00 1.548478889465332031e+01
1.665902709960937500e+01 0.000000000000000000e+00 0.000000000000000000e+00 0.000000000000000000e+00 1.665902709960937500e+01 0.000000000000000000e+00 0.000000000000000000e+00 0.000000000000000000e+00 1.665902709960937500e+01
1.680280113220214844e+01 0.000000000000000000e+00 0.000000000000000000e+00 0.000000000000000000e+00 1.680280113220214844e+01 0.000000000000000000e+00 0.000000000000000000e+00 0.000000000000000000e+00 1.680280113220214844e+01
1.630840492248535156e+01 0.000000000000000000e+00 0.000000000000000000e+00 0.000000000000000000e+00 1.630840492248535156e+01 0.000000000000000000e+00 0.000000000000000000e+00 0.000000000000000000e+00 1.630840492248535156e+01
1.551388168334960938e+01 0.000000000000000000e+00 0.000000000000000000e+00 0.000000000000000000e+00 1.551388168334960938e+01 0.000000000000000000e+00 0.000000000000000000e+00 0.000000000000000000e+00 1.551388168334960938e+01
1.673302841186523438e+01 0.000000000000000000e+00 0.000000000000000000e+00 0.000000000000000000e+00 1.673302841186523438e+01 0.000000000000000000e+00 0.000000000000000000e+00 0.000000000000000000e+00 1.673302841186523438e+01
1.653144264221191406e+01 0.000000000000000000e+00 0.000000000000000000e+00 0.000000000000000000e+00 1.653144264221191406e+01 0.000000000000000000e+00 0.000000000000000000e+00 0.000000000000000000e+00 1.653144264221191406e+01
1.656481170654296875e+01 0.000000000000000000e+00 0.000000000000000000e+00 0.000000000000000000e+00 1.656481170654296875e+01 0.000000000000000000e+00 0.000000000000000000e+00 0.000000000000000000e+00 1.656481170654296875e+01
1.634428024291992188e+01 0.000000000000000000e+00 0.000000000000000000e+00 0.000000000000000000e+00 1.634428024291992188e+01 0.000000000000000000e+00 0.000000000000000000e+00 0.000000000000000000e+00 1.634428024291992188e+01
1.644912338256835938e+01 0.000000000000000000e+00 0.000000000000000000e+00 0.000000000000000000e+00 1.644912338256835938e+01 0.000000000000000000e+00 0.000000000000000000e+00 0.000000000000000000e+00 1.644912338256835938e+01
1.535536956787109375e+01 0.000000000000000000e+00 0.000000000000000000e+00 0.000000000000000000e+00 1.535536956787109375e+01 0.000000000000000000e+00 0.000000000000000000e+00 0.000000000000000000e+00 1.535536956787109375e+01
1.639182853698730469e+01 0.000000000000000000e+00 0.000000000000000000e+00 0.000000000000000000e+00 1.639182853698730469e+01 0.000000000000000000e+00 0.000000000000000000e+00 0.000000000000000000e+00 1.639182853698730469e+01
1.649581336975097656e+01 0.000000000000000000e+00 0.000000000000000000e+00 0.000000000000000000e+00 1.649581336975097656e+01 0.000000000000000000e+00 0.000000000000000000e+00 0.000000000000000000e+00 1.649581336975097656e+01
1.645384216308593750e+01 0.000000000000000000e+00 0.000000000000000000e+00 0.000000000000000000e+00 1.645384216308593750e+01 0.000000000000000000e+00 0.000000000000000000e+00 0.000000000000000000e+00 1.645384216308593750e+01
1.636574745178222656e+01 0.000000000000000000e+00 0.000000000000000000e+00 0.000000000000000000e+00 1.636574745178222656e+01 0.000000000000000000e+00 0.000000000000000000e+00 0.000000000000000000e+00 1.636574745178222656e+01
1.650827598571777344e+01 0.000000000000000000e+00 0.000000000000000000e+00 0.000000000000000000e+00 1.650827598571777344e+01 0.000000000000000000e+00 0.000000000000000000e+00 0.000000000000000000e+00 1.650827598571777344e+01
1.535852909088134766e+01 0.000000000000000000e+00 0.000000000000000000e+00 0.000000000000000000e+00 1.535852909088134766e+01 0.000000000000000000e+00 0.000000000000000000e+00 0.000000000000000000e+00 1.535852909088134766e+01
1.649035453796386719e+01 0.000000000000000000e+00 0.000000000000000000e+00 0.000000000000000000e+00 1.649035453796386719e+01 0.000000000000000000e+00 0.000000000000000000e+00 0.000000000000000000e+00 1.649035453796386719e+01
1.542346286773681641e+01 0.000000000000000000e+00 0.000000000000000000e+00 0.000000000000000000e+00 1.542346286773681641e+01 0.000000000000000000e+00 0.000000000000000000e+00 0.000000000000000000e+00 1.542346286773681641e+01
1.670363998413085938e+01 0.000000000000000000e+00 0.000000000000000000e+00 0.000000000000000000e+00 1.670363998413085938e+01 0.000000000000000000e+00 0.000000000000000000e+00 0.000000000000000000e+00 1.670363998413085938e+01
1.651586151123046875e+01 0.000000000000000000e+00 0.000000000000000000e+00 0.000000000000000000e+00 1.651586151123046875e+01 0.000000000000000000e+00 0.000000000000000000e+00 0.000000000000000000e+00 1.651586151123046875e+01
1.677878189086914062e+01 0.000000000000000000e+00 0.000000000000000000e+00 0.000000000000000000e+00 1.677878189086914062e+01 0.000000000000000000e+00 0.000000000000000000e+00 0.000000000000000000e+00 1.677878189086914062e+01
1.548190307617187500e+01 0.000000000000000000e+00 0.000000000000000000e+00 0.000000000000000000e+00 1.548190307617187500e+01 0.000000000000000000e+00 0.000000000000000000e+00 0.000000000000000000e+00 1.548190307617187500e+01
1.572090148925781250e+01 0.000000000000000000e+00 0.000000000000000000e+00 0.000000000000000000e+00 1.572090148925781250e+01 0.000000000000000000e+00 0.000000000000000000e+00 0.000000000000000000e+00 1.572090148925781250e+01
1.555094718933105469e+01 0.000000000000000000e+00 0.000000000000000000e+00 0.000000000000000000e+00 1.555094718933105469e+01 0.000000000000000000e+00 0.000000000000000000e+00 0.000000000000000000e+00 1.555094718933105469e+01
1.547387123107910156e+01 0.000000000000000000e+00 0.000000000000000000e+00 0.000000000000000000e+00 1.547387123107910156e+01 0.000000000000000000e+00 0.000000000000000000e+00 0.000000000000000000e+00 1.547387123107910156e+01
1.540548324584960938e+01 0.000000000000000000e+00 0.000000000000000000e+00 0.000000000000000000e+00 1.540548324584960938e+01 0.000000000000000000e+00 0.000000000000000000e+00 0.000000000000000000e+00 1.540548324584960938e+01
1.647500038146972656e+01 0.000000000000000000e+00 0.000000000000000000e+00 0.000000000000000000e+00 1.647500038146972656e+01 0.000000000000000000e+00 0.000000000000000000e+00 0.000000000000000000e+00 1.647500038146972656e+01
1.647092056274414062e+01 0.000000000000000000e+00 0.000000000000000000e+00 0.000000000000000000e+00 1.647092056274414062e+01 0.000000000000000000e+00 0.000000000000000000e+00 0.000000000000000000e+00 1.647092056274414062e+01
1.649892425537109375e+01 0.000000000000000000e+00 0.000000000000000000e+00 0.000000000000000000e+00 1.649892425537109375e+01 0.000000000000000000e+00 0.000000000000000000e+00 0.000000000000000000e+00 1.649892425537109375e+01
1.552163410186767578e+01 0.000000000000000000e+00 0.000000000000000000e+00 0.000000000000000000e+00 1.552163410186767578e+01 0.000000000000000000e+00 0.000000000000000000e+00 0.000000000000000000e+00 1.552163410186767578e+01
1.544769382476806641e+01 0.000000000000000000e+00 0.000000000000000000e+00 0.000000000000000000e+00 1.544769382476806641e+01 0.000000000000000000e+00 0.000000000000000000e+00 0.000000000000000000e+00 1.544769382476806641e+01
1.597579383850097656e+01 0.000000000000000000e+00 0.000000000000000000e+00 0.000000000000000000e+00 1.597579383850097656e+01 0.000000000000000000e+00 0.000000000000000000e+00 0.000000000000000000e+00 1.597579383850097656e+01
1.634498596191406250e+01 0.000000000000000000e+00 0.000000000000000000e+00 0.000000000000000000e+00 1.634498596191406250e+01 0.000000000000000000e+00 0.000000000000000000e+00 0.000000000000000000e+00 1.634498596191406250e+01
1.624186134338378906e+01 0.000000000000000000e+00 0.000000000000000000e+00 0.000000000000000000e+00 1.624186134338378906e+01 0.000000000000000000e+00 0.000000000000000000e+00 0.000000000000000000e+00 1.624186134338378906e+01
1.648741340637207031e+01 0.000000000000000000e+00 0.000000000000000000e+00 0.000000000000000000e+00 1.648741340637207031e+01 0.000000000000000000e+00 0.000000000000000000e+00 0.000000000000000000e+00 1.648741340637207031e+01
1.565047645568847656e+01 0.000000000000000000e+00 0.000000000000000000e+00 0.000000000000000000e+00 1.565047645568847656e+01 0.000000000000000000e+00 0.000000000000000000e+00 0.000000000000000000e+00 1.565047645568847656e+01
1.631801795959472656e+01 0.000000000000000000e+00 0.000000000000000000e+00 0.000000000000000000e+00 1.631801795959472656e+01 0.000000000000000000e+00 0.000000000000000000e+00 0.000000000000000000e+00 1.631801795959472656e+01
1.546865272521972656e+01 0.000000000000000000e+00 0.000000000000000000e+00 0.000000000000000000e+00 1.546865272521972656e+01 0.000000000000000000e+00 0.000000000000000000e+00 0.000000000000000000e+00 1.546865272521972656e+01
1.623482322692871094e+01 0.000000000000000000e+00 0.000000000000000000e+00 0.000000000000000000e+00 1.623482322692871094e+01 0.000000000000000000e+00 0.000000000000000000e+00 0.000000000000000000e+00 1.623482322692871094e+01
1.538657188415527344e+01 0.000000000000000000e+00 0.000000000000000000e+00 0.000000000000000000e+00 1.538657188415527344e+01 0.000000000000000000e+00 0.000000000000000000e+00 0.000000000000000000e+00 1.538657188415527344e+01
1.653439521789550781e+01 0.000000000000000000e+00 0.000000000000000000e+00 0.000000000000000000e+00 1.653439521789550781e+01 0.000000000000000000e+00 0.000000000000000000e+00 0.000000000000000000e+00 1.653439521789550781e+01
1.561389827728271484e+01 0.000000000000000000e+00 0.000000000000000000e+00 0.000000000000000000e+00 1.561389827728271484e+01 0.000000000000000000e+00 0.000000000000000000e+00 0.000000000000000000e+00 1.561389827728271484e+01
