2.826309919357299805e+00 8.303070068359375000e+00 4.464849948883056641e+00 8.983289718627929688e+00 9.740830421447753906e+00 3.994270086288452148e+00 1.450769996643066406e+01 9.021369934082031250e+00 7.882569789886474609e+00 2.864699959754943848e-01 9.611140251159667969e+00 1.988399982452392578e+00 1.083780002593994141e+01 9.390959739685058594e+00 6.160319805145263672e+00 1.244799995422363281e+01 3.441600084304809570e+00 1.051850032806396484e+01 1.343640041351318359e+01 9.699000358581542969e+00 1.509889984130859375e+01 1.059510040283203125e+01 5.595349788665771484e+00 1.522189998626708984e+01 6.226140022277832031e+00 1.415590000152587891e+01 1.299250030517578125e+01 1.190330028533935547e+00 1.299940013885498047e+01 1.255739974975585938e+01 1.120470046997070312e+01 5.652800202369689941e-01 1.347760009765625000e+01 5.067090034484863281e+00 1.242459964752197266e+01 1.023999977111816406e+01 1.131750011444091797e+01 2.259089946746826172e+00 1.890980005264282227e+00 1.293089962005615234e+01 8.431340217590332031e+00 1.251500034332275391e+01 1.114649963378906250e+01 1.328079986572265625e+01 1.228240013122558594e+01 8.792010307312011719e+00 1.261709976196289062e+01 1.352369976043701172e+01 8.470549583435058594e+00 1.424680042266845703e+01 2.141200065612792969e+00 3.076380014419555664e+00 1.053170013427734375e+01 2.429440021514892578e+00 9.925430297851562500e+00 2.662780046463012695e+00 1.511330032348632812e+01 1.236550045013427734e+01 4.551839828491210938e+00 5.357409954071044922e+00 1.237549972534179688e+01 1.191810035705566406e+01 1.434689998626708984e+01 3.960580110549926758e+00 9.978070259094238281e+00 6.788519859313964844e+00 1.486570000648498535e+00 8.145730018615722656e+00 1.265859985351562500e+01 1.296300029754638672e+01 3.355550050735473633e+00 1.342380046844482422e+01 1.023190021514892578e+01 6.600319862365722656e+00 4.392590045928955078e+00 6.086090087890625000e+00 1.159609985351562500e+01 5.404389858245849609e+00 2.535959959030151367e+00 1.311709976196289062e+01 3.006200075149536133e+00 1.385359954833984375e+01 1.039239978790283203e+01 3.749380111694335938e+00 1.130889987945556641e+01 1.159200000762939453e+01 2.089890003204345703e+00 1.080270051956176758e+00 6.523499965667724609e+00 8.952800035476684570e-01 1.136130046844482422e+01 1.457170009613037109e+01 1.276710033416748047e+00 2.919270038604736328e+00 1.551790046691894531e+01 1.314839959144592285e+00 1.931540012359619141e+00 8.709250450134277344e+00 4.222199916839599609e+00 3.379689931869506836e+00 8.701250076293945312e+00 3.800889968872070312e+00 8.258480072021484375e+00 1.015470027923583984e+01 4.522779941558837891e+00 9.371210098266601562e+00 1.050049972534179688e+01 3.533400058746337891e+00 1.539019966125488281e+01 9.033100128173828125e+00 8.292539596557617188e+00 1.425199985504150391e+01 9.934029579162597656e+00 7.806479930877685547e+00 1.518929958343505859e+01 1.010649967193603516e+01 2.507790088653564453e+00 1.532810020446777344e+01 9.281669616699218750e+00 1.268959999084472656e+00 1.079300022125244141e+01 8.423100471496582031e+00 6.362979888916015625e+00 1.030760002136230469e+01 9.485779762268066406e+00 5.359210014343261719e+00 1.215489959716796875e+01 3.931129932403564453e+00 9.765319824218750000e+00 1.182180023193359375e+01 3.752769947052001953e+00 1.118330001831054688e+01 1.351449966430664062e+01 9.214520454406738281e+00 1.427499961853027344e+01 1.328050041198730469e+01 1.059539985656738281e+01 1.475720024108886719e+01 1.127970027923583984e+01 5.708179950714111328e+00 1.454570007324218750e+01 1.015209960937500000e+01 4.793560028076171875e+00 1.491979980468750000e+01 5.925159931182861328e+00 1.399860000610351562e+01 1.210000038146972656e+01 6.319240093231201172e+00 1.515130043029785156e+01 1.309140014648437500e+01 4.281499981880187988e-01 1.306919956207275391e+01 1.193550014495849609e+01 8.878200054168701172e-01 1.250489997863769531e+01 1.333430004119873047e+01 1.173799991607666016e+01 2.044699937105178833e-01 1.419550037384033203e+01 1.042790031433105469e+01 1.021270036697387695e+00 1.385569953918457031e+01 4.676579952239990234e+00 1.311940002441406250e+01 9.630800247192382812e+00 4.256299972534179688e+00 1.200769996643066406e+01 1.063790035247802734e+01 1.228079986572265625e+01 2.525019884109497070e+00 1.875429987907409668e+00 1.081359958648681641e+01 2.508389949798583984e+00 2.690459966659545898e+00 1.202019977569580078e+01 8.608710289001464844e+00 1.237619972229003906e+01 1.329810047149658203e+01 8.923810005187988281e+00 1.175209999084472656e+01 1.097480010986328125e+01 1.414480018615722656e+01 1.262150001525878906e+01 1.031830024719238281e+01 1.280640029907226562e+01 1.249230003356933594e+01 8.487709999084472656e+00 1.223890018463134766e+01 1.263650035858154297e+01 9.123189926147460938e+00 1.186509990692138672e+01 1.404139995574951172e+01 8.656399726867675781e+00 1.351500034332275391e+01 2.753629922866821289e+00 8.000720024108886719e+00 1.383660030364990234e+01 1.390630006790161133e+00 3.058660030364990234e+00 1.152340030670166016e+01 2.540640115737915039e+00 2.123199939727783203e+00 1.032339954376220703e+01 2.179519891738891602e+00 1.026319980621337891e+01 2.659859895706176758e+00 4.720700085163116455e-01 8.993350028991699219e+00 2.747590065002441406e+00 1.535599994659423828e+01 1.329640007019042969e+01 4.708099842071533203e+00 5.426229953765869141e+00 1.191450023651123047e+01 5.307149887084960938e+00 4.998129844665527344e+00 1.203829956054687500e+01 1.228839969635009766e+01 1.347200012207031250e+01 1.307740020751953125e+01 1.250220012664794922e+01 1.475759983062744141e+01 3.621700048446655273e+00 9.119850158691406250e+00 6.508570194244384766e+00 4.306270122528076172e+00 1.030259990692138672e+01 5.960169792175292969e+00 1.688899993896484375e+00 7.401229858398437500e+00 1.332059955596923828e+01 1.229959964752197266e+00 8.923350334167480469e+00 1.321770000457763672e+01 1.235420036315917969e+01 2.606849908828735352e+00 1.354520034790039062e+01 1.336250019073486328e+01 3.253410100936889648e+00 1.256029987335205078e+01 9.356559753417968750e+00 6.210830211639404297e+00 4.204390048980712891e+00 1.003520011901855469e+01 7.558680057525634766e+00 4.158199787139892578e+00 5.246789932250976562e+00 1.168140029907226562e+01 4.859549999237060547e+00 5.710750102996826172e+00 1.119849967956542969e+01 6.216000080108642578e+00 2.621599912643432617e+00 1.382139968872070312e+01 2.311330080032348633e+00 1.584319949150085449e+00 1.293190002441406250e+01 3.088109970092773438e+00 1.320170021057128906e+01 9.863490104675292969e+00 4.248819828033447266e+00 1.331770038604736328e+01 1.066090011596679688e+01 2.972949981689453125e+00 1.130189990997314453e+01 1.098610019683837891e+01 1.346050024032592773e+00 1.173820018768310547e+01 1.240509986877441406e+01 1.753139972686767578e+00 1.481500029563903809e+00 5.712729930877685547e+00 1.231729984283447266e+00 1.596199989318847656e+00 7.155300140380859375e+00 1.479889988899230957e+00 1.156499958038330078e+01 1.549510002136230469e+01 1.561849951744079590e+00 1.038910007476806641e+01 1.443519973754882812e+01 1.515759944915771484e+00 2.210040092468261719e+00 6.230400204658508301e-01 1.213999986648559570e+00 3.795769929885864258e+00 3.177999854087829590e-01 1.029569983482360840e+00
4.897659778594970703e+00 9.029629707336425781e+00 5.240590095520019531e+00 8.377429962158203125e+00 8.194040298461914062e+00 3.255219936370849609e+00 1.440830039978027344e+01 7.291719913482666016e+00 7.066450119018554688e+00 4.542300105094909668e-01 9.138560295104980469e+00 9.061200022697448730e-01 1.381089973449707031e+01 1.006470012664794922e+01 5.418330192565917969e+00 1.162500000000000000e+01 6.328499913215637207e-01 9.480850219726562500e+00 1.542039966583251953e+01 1.048180007934570312e+01 1.355990028381347656e+01 1.092809963226318359e+01 6.153649806976318359e+00 1.522770023345947266e+01 3.946719884872436523e+00 1.263010025024414062e+01 1.372869968414306641e+01 1.381379985809326172e+01 1.264410018920898438e+01 1.210910034179687500e+01 1.176000022888183594e+01 1.496909999847412109e+01 1.398470020294189453e+01 4.565139770507812500e+00 1.402970027923583984e+01 9.613120079040527344e+00 1.232579994201660156e+01 3.213229894638061523e+00 1.529350042343139648e+00 1.231999969482421875e+01 8.140319824218750000e+00 1.354419994354248047e+01 9.693369865417480469e+00 5.260000005364418030e-03 1.223849964141845703e+01 7.357130050659179688e+00 1.387360000610351562e+01 1.296860027313232422e+01 8.608329772949218750e+00 1.305080032348632812e+01 1.549050045013427734e+01 3.490869998931884766e+00 9.997830390930175781e+00 3.028019905090332031e+00 1.025389957427978516e+01 2.646290063858032227e+00 1.553559970855712891e+01 1.429679965972900391e+01 2.351219892501831055e+00 4.478809833526611328e+00 1.140639972686767578e+01 1.283059978485107422e+01 5.053000152111053467e-02 2.581379890441894531e+00 1.043840026855468750e+01 6.757559776306152344e+00 2.803090095520019531e+00 8.251839637756347656e+00 1.383240032196044922e+01 1.379319953918457031e+01 5.033760070800781250e+00 2.858999967575073242e-01 1.124619960784912109e+01 8.598770141601562500e+00 3.533669948577880859e+00 4.657549858093261719e+00 1.233549976348876953e+01 4.754779815673828125e+00 1.570829987525939941e+00 1.190429973602294922e+01 3.146650075912475586e+00 1.439299964904785156e+01 1.040390014648437500e+01 2.691580057144165039e+00 1.157549953460693359e+01 1.083100032806396484e+01 2.380990028381347656e+00 1.547589969635009766e+01 6.600969791412353516e+00 1.499819993972778320e+00 9.969980239868164062e+00 1.122799962759017944e-01 1.928709983825683594e+00 3.911439895629882812e+00 1.620399951934814453e-01 4.055830001831054688e+00 4.181429862976074219e+00 8.724229812622070312e+00 5.771420001983642578e+00 4.429430007934570312e+00 9.500229835510253906e+00 4.531919956207275391e+00 7.811250209808349609e+00 8.982740402221679688e+00 3.109499931335449219e+00 7.749249935150146484e+00 7.579539775848388672e+00 3.643160104751586914e+00 1.445359992980957031e+01 7.980599880218505859e+00 6.365089893341064453e+00 1.536079978942871094e+01 7.032380104064941406e+00 7.199329853057861328e+00 1.147399991750717163e-01 9.788240432739257812e+00 1.638389945030212402e+00 1.382499933242797852e-01 9.425250053405761719e+00 2.756999991834163666e-02 1.283829975128173828e+01 9.918560028076171875e+00 5.415719985961914062e+00 1.396660041809082031e+01 1.090209960937500000e+01 5.859749794006347656e+00 1.112390041351318359e+01 1.460530042648315430e+00 9.357799530029296875e+00 1.248919963836669922e+01 8.443199992179870605e-01 9.883939743041992188e+00 1.809999942779541016e-01 1.005799961090087891e+01 1.277890014648437500e+01 1.444550037384033203e+01 1.042549991607666016e+01 1.346800041198730469e+01 1.055410003662109375e+01 5.377980232238769531e+00 1.511799991130828857e-01 1.188029956817626953e+01 6.044549942016601562e+00 1.545009994506835938e+01 3.240959882736206055e+00 1.221269989013671875e+01 1.431340026855468750e+01 4.047699928283691406e+00 1.192580032348632812e+01 1.306949996948242188e+01 1.459420013427734375e+01 1.240960025787353516e+01 1.266989994049072266e+01 1.326539993286132812e+01 1.325759983062744141e+01 1.267640018463134766e+01 1.160939979553222656e+01 1.414509963989257812e+01 1.448560047149658203e+01 1.268929958343505859e+01 1.517360019683837891e+01 1.422789955139160156e+01 4.342259883880615234e+00 1.490919971466064453e+01 9.255689620971679688e+00 4.995810031890869141e+00 1.421759986877441406e+01 1.047019958496093750e+01 1.288969993591308594e+01 2.519459962844848633e+00 1.846680045127868652e+00 1.287940025329589844e+01 3.865170001983642578e+00 1.028849959373474121e+00 1.147859954833984375e+01 7.662069797515869141e+00 1.370100021362304688e+01 1.217389965057373047e+01 8.604689598083496094e+00 1.274600028991699219e+01 1.057509994506835938e+01 1.535089969635009766e+01 1.251070022583007812e+01 9.920069694519042969e+00 2.091100066900253296e-01 1.129500007629394531e+01 8.022009849548339844e+00 1.450590038299560547e+01 1.262889957427978516e+01 7.474470138549804688e+00 1.309179973602294922e+01 1.242770004272460938e+01 7.731100082397460938e+00 1.323880004882812500e+01 2.917700111865997314e-01 8.433159828186035156e+00 1.343920040130615234e+01 1.459370040893554688e+01 2.704139947891235352e+00 1.060739994049072266e+01 2.915709972381591797e+00 3.457619905471801758e+00 9.386409759521484375e+00 2.263089895248413086e+00 1.119610023498535156e+01 2.859270095825195312e+00 3.140499889850616455e-01 1.050990009307861328e+01 2.151160001754760742e+00 1.467150020599365234e+01 1.512110042572021484e+01 2.513859987258911133e+00 4.036330223083496094e+00 1.443270015716552734e+01 2.921590089797973633e+00 5.238649845123291016e+00 1.175290012359619141e+01 1.210879993438720703e+01 6.269400119781494141e-01 1.043719959259033203e+01 1.260949993133544922e+01 8.170000277459621429e-03 2.652640104293823242e+00 1.138319969177246094e+01 6.537069797515869141e+00 3.431890010833740234e+00 1.007439994812011719e+01 6.476809978485107422e+00 1.856109976768493652e+00 8.121560096740722656e+00 1.412979984283447266e+01 3.290349960327148438e+00 7.878039836883544922e+00 1.462530040740966797e+01 1.443889999389648438e+01 5.559869766235351562e+00 8.240900039672851562e-01 1.407479953765869141e+01 4.981870174407958984e+00 1.490410041809082031e+01 1.167660045623779297e+01 7.903150081634521484e+00 3.004970073699951172e+00 1.033279991149902344e+01 8.300589561462402344e+00 3.730459928512573242e+00 4.658440113067626953e+00 1.323499965667724609e+01 5.184820175170898438e+00 5.527470111846923828e+00 1.218070030212402344e+01 4.319479942321777344e+00 1.614699959754943848e+00 1.231610012054443359e+01 4.018239974975585938e+00 6.396399736404418945e-01 1.195549964904785156e+01 2.833209991455078125e+00 1.453279972076416016e+01 1.046240043640136719e+01 3.624540090560913086e+00 1.358609962463378906e+01 1.091129970550537109e+01 2.442389965057373047e+00 1.095009994506835938e+01 1.137829971313476562e+01 2.897670030593872070e+00 1.129039955139160156e+01 9.912549972534179688e+00 2.700489997863769531e+00 8.010100126266479492e-01 6.238210201263427734e+00 1.603340029716491699e+00 1.102000009268522263e-02 7.594999790191650391e+00 1.186259984970092773e+00 1.047560024261474609e+01 1.523250007629394531e+01 1.218410015106201172e+00 9.790450096130371094e+00 9.898999929428100586e-01 1.479210019111633301e+00 4.559919834136962891e+00 1.497749996185302734e+01 3.950289964675903320e+00 3.652299880981445312e+00 3.946799933910369873e-01 3.115829944610595703e+00
1.164019966125488281e+01 3.333169937133789062e+00 3.587899923324584961e+00 8.324699997901916504e-01 3.220360040664672852e+00 5.748050212860107422e+00 4.524999856948852539e-01 6.085309982299804688e+00 4.984189987182617188e+00 9.138620376586914062e+00 3.932420015335083008e+00 2.180850028991699219e+00 7.144470214843750000e+00 3.427139997482299805e+00 2.175700068473815918e-01 3.889659881591796875e+00 1.051220035552978516e+01 1.022109985351562500e+01 4.888199806213378906e+00 1.394349956512451172e+01 3.495330095291137695e+00 1.434869956970214844e+01 1.374120044708251953e+01 5.698560237884521484e+00 4.132150173187255859e+00 1.320049953460693359e+01 6.411890029907226562e+00 1.217560005187988281e+01 1.582199931144714355e-01 2.790800094604492188e+00 2.304610013961791992e+00 8.068500161170959473e-01 4.507840156555175781e+00 6.262290000915527344e+00 8.085370063781738281e+00 7.838369846343994141e+00 1.177000045776367188e+01 5.502369880676269531e+00 1.501459980010986328e+01 9.375089645385742188e+00 3.770970106124877930e+00 1.355739974975585938e+01 1.441979980468750000e+01 5.292590141296386719e+00 9.595040321350097656e+00 1.236509990692138672e+01 4.730629920959472656e+00 5.836760044097900391e+00 6.092269897460937500e+00 1.340579986572265625e+01 8.365169525146484375e+00 2.636110067367553711e+00 1.018640041351318359e+01 1.243140029907226562e+01 4.178949832916259766e+00 1.556410026550292969e+01 1.050710010528564453e+01 1.361960029602050781e+01 7.627729892730712891e+00 5.888400077819824219e+00 2.207000017166137695e+00 1.493649959564208984e+01 6.933700084686279297e+00 1.522970008850097656e+01 2.639999985694885254e-01 3.288539886474609375e+00 9.660240173339843750e+00 2.055779933929443359e+00 1.115839958190917969e+01 4.321869850158691406e+00 8.037999868392944336e-01 2.428009986877441406e+00 6.653470039367675781e+00 6.193199753761291504e-01 9.497460365295410156e+00 7.531489849090576172e+00 1.096179962158203125e+00 1.396179962158203125e+01 1.189050006866455078e+01 6.653450012207031250e+00 2.361670017242431641e+00 8.199799537658691406e+00 8.414640426635742188e+00 6.273999810218811035e-02 3.834980010986328125e+00 1.037849998474121094e+01 6.660550117492675781e+00 3.204960107803344727e+00 1.264099979400634766e+01 1.191559982299804688e+01 1.556949996948242188e+01 1.506999969482421875e+01 2.806900143623352051e-01 9.911230087280273438e+00 1.781669974327087402e+00 8.333800315856933594e+00 1.105300045013427734e+01 2.979939937591552734e+00 2.931400060653686523e+00 1.244460010528564453e+01 3.602710008621215820e+00 3.189909934997558594e+00 9.872400164604187012e-01 4.147679805755615234e+00 5.436600208282470703e+00 1.559399986267089844e+01 3.012850046157836914e+00 5.744790077209472656e+00 1.005730032920837402e+00 6.573440074920654297e+00 5.613259792327880859e+00 1.519830036163330078e+01 6.373030185699462891e+00 5.141650199890136719e+00 8.905659675598144531e+00 4.454710006713867188e+00 2.973489999771118164e+00 8.206769943237304688e+00 3.781209945678710938e+00 1.784399986267089844e+00 7.273479938507080078e+00 2.535530090332031250e+00 6.367400288581848145e-01 7.437970161437988281e+00 3.338910102844238281e+00 1.490970039367675781e+01 3.275810003280639648e+00 1.025679969787597656e+01 9.547320365905761719e+00 4.690380096435546875e+00 1.094629955291748047e+01 9.891280174255371094e+00 4.839779853820800781e+00 1.485789966583251953e+01 3.195199966430664062e+00 5.374859809875488281e+00 1.346280002593994141e+01 2.800940036773681641e+00 1.390709972381591797e+01 1.333790016174316406e+01 4.883940219879150391e+00 1.455930042266845703e+01 1.461330032348632812e+01 5.532700061798095703e+00 4.232349872589111328e+00 1.328499984741210938e+01 5.406829833984375000e+00 5.020740032196044922e+00 1.332079982757568359e+01 6.742650032043457031e+00 1.300710010528564453e+01 1.541849994659423828e+01 2.978539943695068359e+00 1.249590015411376953e+01 1.068300008773803711e+00 2.844369888305664062e+00 2.026550054550170898e+00 1.670099973678588867e+00 4.955309867858886719e+00 2.491509914398193359e+00 1.459999978542327881e-01 5.253600120544433594e+00 6.391429901123046875e+00 8.871100425720214844e+00 8.416780471801757812e+00 6.949150085449218750e+00 7.514760017395019531e+00 8.100939750671386719e+00 1.217039966583251953e+01 4.651380062103271484e+00 1.473110008239746094e+01 1.219419956207275391e+01 6.033830165863037109e+00 1.435680007934570312e+01 9.610939979553222656e+00 3.436009883880615234e+00 1.266279983520507812e+01 9.460700035095214844e+00 4.742070198059082031e+00 1.331490039825439453e+01 1.377900028228759766e+01 4.813129901885986328e+00 1.012650012969970703e+01 1.454409980773925781e+01 4.804850101470947266e+00 8.754799842834472656e+00 1.222340011596679688e+01 3.769740104675292969e+00 5.861229896545410156e+00 1.168509960174560547e+01 4.896940231323242188e+00 5.137929916381835938e+00 5.418560028076171875e+00 1.354800033569335938e+01 9.016169548034667969e+00 6.622940063476562500e+00 1.420489978790283203e+01 8.282699584960937500e+00 2.467530012130737305e+00 9.460240364074707031e+00 1.172019958496093750e+01 2.635950088500976562e+00 9.633910179138183594e+00 1.328899955749511719e+01 3.270790100097656250e+00 1.387100070714950562e-01 1.048859977722167969e+01 4.068550109863281250e+00 1.472589969635009766e+01 1.100720024108886719e+01 1.275459957122802734e+01 7.448219776153564453e+00 5.421350002288818359e+00 1.351159954071044922e+01 8.560400009155273438e+00 5.960889816284179688e+00 2.775860071182250977e+00 1.415359973907470703e+01 6.961180210113525391e+00 1.354560017585754395e+00 1.457320022583007812e+01 6.640510082244873047e+00 1.522609996795654297e+01 2.711600065231323242e-01 2.338819980621337891e+00 5.791000127792358398e-01 3.363400101661682129e-01 3.468100070953369141e+00 9.056730270385742188e+00 2.472039937973022461e+00 1.054059982299804688e+01 1.044859981536865234e+01 2.006730079650878906e+00 1.063930034637451172e+01 3.940589904785156250e+00 1.026769995689392090e+00 3.279190063476562500e+00 3.855479955673217773e+00 1.227020025253295898e+00 1.692250013351440430e+00 6.995900154113769531e+00 1.450129985809326172e+00 9.874039649963378906e+00 5.751379966735839844e+00 5.040799975395202637e-01 9.930919647216796875e+00 6.727960109710693359e+00 5.216599702835083008e-01 1.389019966125488281e+01 8.213109970092773438e+00 5.424600243568420410e-01 1.349629974365234375e+01 1.261460018157958984e+01 7.197659969329833984e+00 1.971819996833801270e+00 1.163230037689208984e+01 5.968520164489746094e+00 1.770040035247802734e+00 7.608280181884765625e+00 7.639289855957031250e+00 1.053799986839294434e-01 8.262399673461914062e+00 8.601980209350585938e+00 1.476089954376220703e+01 3.685930013656616211e+00 1.129170036315917969e+01 6.638979911804199219e+00 4.106510162353515625e+00 1.006099987030029297e+01 5.839109897613525391e+00 2.655119895935058594e+00 1.263409996032714844e+01 1.273490047454833984e+01 3.225349903106689453e+00 1.167220020294189453e+01 1.170320034027099609e+01 7.402399778366088867e-01 1.488459968566894531e+01 1.545680046081542969e+01 1.527429962158203125e+01 1.409969997406005859e+01 2.366299927234649658e-01 9.448410034179687500e+00 1.190960049629211426e+00 7.720930099487304688e+00 9.654890060424804688e+00 2.708810091018676758e+00 8.049189567565917969e+00
1.505739974975585938e+01 8.323570251464843750e+00 1.010719966888427734e+01 1.171599999070167542e-01 7.010759830474853516e+00 7.475989818572998047e+00 1.291829967498779297e+01 4.060500144958496094e+00 1.294760036468505859e+01 2.170170068740844727e+00 5.363930225372314453e+00 2.525559902191162109e+00 2.708750009536743164e+00 6.224070072174072266e+00 1.054389953613281250e+01 1.817510008811950684e+00 5.624700069427490234e+00 6.163380146026611328e+00 2.252500057220458984e-01 1.520230007171630859e+01 1.680670022964477539e+00 2.417779922485351562e+00 1.547490024566650391e+01 5.437860012054443359e+00 5.550509929656982422e+00 5.072239875793457031e+00 9.447930335998535156e+00 2.576270103454589844e+00 7.602580070495605469e+00 4.012249946594238281e+00 1.004590034484863281e+01 1.081150054931640625e+00 1.167609977722167969e+01 1.125179958343505859e+01 3.151520013809204102e+00 8.215080261230468750e+00 4.203110218048095703e+00 1.169869995117187500e+01 1.365680027008056641e+01 3.506959915161132812e+00 1.434300041198730469e+01 1.287959957122802734e+01 8.551210403442382812e+00 5.247739791870117188e+00 1.048449993133544922e+01 1.402509975433349609e+01 1.088869953155517578e+01 1.109130001068115234e+01 9.340049743652343750e+00 3.879189968109130859e+00 2.186140060424804688e+00 1.342000007629394531e+01 1.376019954681396484e+01 1.218840026855468750e+01 1.372000026702880859e+01 1.519950032234191895e+00 1.509650039672851562e+01 1.091209983825683594e+01 3.878329992294311523e+00 1.089350032806396484e+01 9.431289672851562500e+00 5.920050144195556641e+00 4.210549831390380859e+00 1.140060043334960938e+01 1.207579994201660156e+01 1.525959968566894531e+01 1.284629940986633301e+00 1.026220035552978516e+01 3.680609941482543945e+00 1.132769966125488281e+01 1.556700038909912109e+01 1.384070014953613281e+01 1.304179954528808594e+01 2.194669961929321289e+00 3.462179899215698242e+00 1.473260021209716797e+01 6.634900093078613281e+00 1.273750019073486328e+01 1.464570045471191406e+01 1.483170032501220703e+01 9.456749916076660156e+00 6.495399951934814453e+00 4.019619941711425781e+00 1.881170034408569336e+00 1.941239953041076660e+00 8.829130172729492188e+00 9.541449546813964844e+00 7.126470088958740234e+00 1.075699996948242188e+01 5.687280178070068359e+00 3.377409934997558594e+00 5.398530006408691406e+00 1.319079971313476562e+01 1.665420055389404297e+00 7.145160198211669922e+00 1.487740039825439453e+01 1.511340045928955078e+01 7.697360038757324219e+00 1.093330001831054688e+01 1.447900009155273438e+01 9.095680236816406250e+00 1.041349983215332031e+01 1.524330043792724609e+01 6.904479980468750000e+00 8.318570137023925781e+00 3.549900054931640625e-01 7.948929786682128906e+00 7.485459804534912109e+00 1.365579986572265625e+01 4.525109767913818359e+00 1.252120018005371094e+01 1.224390029907226562e+01 4.075459957122802734e+00 1.223260021209716797e+01 1.969169974327087402e+00 4.706830024719238281e+00 3.197139978408813477e+00 2.181580066680908203e+00 6.155300140380859375e+00 3.057770013809204102e+00 3.481600046157836914e+00 5.893060207366943359e+00 9.962869644165039062e+00 2.714270114898681641e+00 7.176040172576904297e+00 1.038000011444091797e+01 2.660850048065185547e+00 5.676889896392822266e+00 6.605879783630371094e+00 1.166929960250854492e+00 6.190869808197021484e+00 6.773990154266357422e+00 1.616300046443939209e-01 1.830500066280364990e-01 8.558999896049499512e-01 1.552400016784667969e+01 1.436550045013427734e+01 1.422829985618591309e+00 2.262929916381835938e+00 1.589100062847137451e-01 4.565740108489990234e+00 1.609179973602294922e+00 1.498680019378662109e+01 5.583690166473388672e+00 5.920919895172119141e+00 4.552219867706298828e+00 8.633060455322265625e+00 6.311069965362548828e+00 5.193719863891601562e+00 1.004489994049072266e+01 2.325380086898803711e+00 6.868810176849365234e+00 4.667570114135742188e+00 1.761590003967285156e+00 8.009340286254882812e+00 3.822180032730102539e+00 9.140689849853515625e+00 1.194470047950744629e+00 1.193150043487548828e+01 1.044369983673095703e+01 5.986700057983398438e-01 1.244209957122802734e+01 1.161470031738281250e+01 2.250410079956054688e+00 8.129229545593261719e+00 1.053489971160888672e+01 3.176039934158325195e+00 7.532269954681396484e+00 4.179309844970703125e+00 1.132689952850341797e+01 1.454520034790039062e+01 3.594589948654174805e+00 1.110029983520507812e+01 1.312619972229003906e+01 3.697269916534423828e+00 1.496010017395019531e+01 1.358520030975341797e+01 3.769609928131103516e+00 1.346809959411621094e+01 1.321010017395019531e+01 8.627309799194335938e+00 5.504960060119628906e+00 1.143519973754882812e+01 9.393260002136230469e+00 4.765490055084228516e+00 1.030029964447021484e+01 1.423579978942871094e+01 1.091539955139160156e+01 1.201109981536865234e+01 1.346730041503906250e+01 1.169239997863769531e+01 1.094659996032714844e+01 8.529399871826171875e+00 3.585000038146972656e+00 1.710029959678649902e+00 1.010499954223632812e+01 3.951109886169433594e+00 1.599850058555603027e+00 1.393190002441406250e+01 1.327040004730224609e+01 1.286699962615966797e+01 1.412160015106201172e+01 1.424090003967285156e+01 1.166289997100830078e+01 1.299479961395263672e+01 1.145470023155212402e+00 1.452350044250488281e+01 1.387919998168945312e+01 2.376719951629638672e+00 1.472140026092529297e+01 1.113700008392333984e+01 3.624500036239624023e+00 9.935480117797851562e+00 1.054199981689453125e+01 3.061399936676025391e+00 1.114700031280517578e+01 1.041479969024658203e+01 5.701489925384521484e+00 4.306240081787109375e+00 9.301520347595214844e+00 5.311769962310791016e+00 3.438719987869262695e+00 1.146080017089843750e+01 1.197290039062500000e+01 5.971000194549560547e-01 1.050010013580322266e+01 1.173799991607666016e+01 1.510750007629394531e+01 6.542900204658508301e-01 1.059840011596679688e+01 3.076859951019287109e+00 1.198590040206909180e+00 1.086960029602050781e+01 4.403140068054199219e+00 1.201070022583007812e+01 1.517420005798339844e+01 1.322010040283203125e+01 1.108110046386718750e+01 1.474419975280761719e+01 1.432730007171630859e+01 1.294149971008300781e+01 2.381510019302368164e+00 2.536420106887817383e+00 1.293140029907226562e+01 1.210160017013549805e+00 3.542670011520385742e+00 1.536740016937255859e+01 7.098130226135253906e+00 1.337419986724853516e+01 1.401790046691894531e+01 6.677730083465576172e+00 1.333129978179931641e+01 1.514920043945312500e+01 1.409150028228759766e+01 9.046739578247070312e+00 1.520040035247802734e+01 5.556999891996383667e-02 9.316579818725585938e+00 5.816870212554931641e+00 4.212609767913818359e+00 2.583889961242675781e+00 6.324940204620361328e+00 4.767749786376953125e+00 1.219249963760375977e+00 2.177589893341064453e+00 9.462670326232910156e+00 1.020160007476806641e+01 9.436299800872802734e-01 8.641189575195312500e+00 9.721199989318847656e+00 6.599020004272460938e+00 1.093360042572021484e+01 4.927090167999267578e+00 7.894189834594726562e+00 1.020230007171630859e+01 5.343130111694335938e+00 4.402140140533447266e+00 5.519489765167236328e+00 1.317710018157958984e+01 3.205260038375854492e+00 5.609020233154296875e+00 1.220590019226074219e+01 2.246920108795166016e+00 6.650040149688720703e+00 1.423069953918457031e+01 1.577299952507019043e+00 6.529910087585449219e+00 1.906999945640563965e-02