-7.257139999999999702e-01 2.468698999999999977e+00 -3.079000000000000140e-02 -1.082880999999999982e+00 -2.329112999999999989e+00 1.506799999999999980e-02 -8.064850000000000074e-01 -2.362883000000000067e+00 3.887899999999999689e-02 1.530372999999999983e+00 -1.056909999999999933e-01 -8.087000000000000438e-03 5.483280000000000376e-01 1.165027000000000035e+00 -1.730777999999999928e+00 5.363790000000000502e-01 1.163961000000000023e+00 1.715708000000000011e+00
