   6   6   0   0
  0.5000000E+03  0.3000000E-08  0.1000000E-08  0.1000000E-08  0.5000000E-15
  1.000000000000000E-004
  CAR 
 unknown system                          
      1.46569715    -26.89407920  301     -5.99056072      1.00000000
    -26.894  0.0000E+00  0.0000E+00
    -26.800  0.0000E+00  0.0000E+00
    -26.705  0.0000E+00  0.0000E+00
    -26.610  0.0000E+00  0.0000E+00
    -26.516  0.0000E+00  0.0000E+00
    -26.421  0.0000E+00  0.0000E+00
    -26.327  0.0000E+00  0.0000E+00
    -26.232  0.0000E+00  0.0000E+00
    -26.138  0.0000E+00  0.0000E+00
    -26.043  0.0000E+00  0.0000E+00
    -25.949  0.0000E+00  0.0000E+00
    -25.854  0.1905E-10  0.1801E-11
    -25.760  0.1283E-03  0.1213E-04
    -25.665  0.9398E+00  0.8885E-01
    -25.571  0.1672E+02  0.1669E+01
    -25.476  0.3498E+01  0.2000E+01
    -25.382  0.2817E-02  0.2000E+01
    -25.287  0.2769E-08  0.2000E+01
    -25.192  0.0000E+00  0.2000E+01
    -25.098  0.0000E+00  0.2000E+01
    -25.003  0.0000E+00  0.2000E+01
    -24.909  0.0000E+00  0.2000E+01
    -24.814  0.0000E+00  0.2000E+01
    -24.720  0.0000E+00  0.2000E+01
    -24.625  0.0000E+00  0.2000E+01
    -24.531  0.0000E+00  0.2000E+01
    -24.436  0.0000E+00  0.2000E+01
    -24.342  0.0000E+00  0.2000E+01
    -24.247  0.0000E+00  0.2000E+01
    -24.153  0.0000E+00  0.2000E+01
    -24.058  0.2134E-11  0.2000E+01
    -23.964  0.3127E-04  0.2000E+01
    -23.869  0.4812E+00  0.2045E+01
    -23.775  0.1538E+02  0.3500E+01
    -23.680  0.5286E+01  0.3999E+01
    -23.585  0.8625E-02  0.4000E+01
    -23.491  0.1830E-07  0.4000E+01
    -23.396  0.0000E+00  0.4000E+01
    -23.302  0.0000E+00  0.4000E+01
    -23.207  0.0000E+00  0.4000E+01
    -23.113  0.0000E+00  0.4000E+01
    -23.018  0.0000E+00  0.4000E+01
    -22.924  0.0000E+00  0.4000E+01
    -22.829  0.0000E+00  0.4000E+01
    -22.735  0.0000E+00  0.4000E+01
    -22.640  0.0000E+00  0.4000E+01
    -22.546  0.0000E+00  0.4000E+01
    -22.451  0.0000E+00  0.4000E+01
    -22.357  0.0000E+00  0.4000E+01
    -22.262  0.0000E+00  0.4000E+01
    -22.167  0.0000E+00  0.4000E+01
    -22.073  0.0000E+00  0.4000E+01
    -21.978  0.0000E+00  0.4000E+01
    -21.884  0.0000E+00  0.4000E+01
    -21.789  0.0000E+00  0.4000E+01
    -21.695  0.0000E+00  0.4000E+01
    -21.600  0.0000E+00  0.4000E+01
    -21.506  0.0000E+00  0.4000E+01
    -21.411  0.0000E+00  0.4000E+01
    -21.317  0.0000E+00  0.4000E+01
    -21.222  0.0000E+00  0.4000E+01
    -21.128  0.0000E+00  0.4000E+01
    -21.033  0.0000E+00  0.4000E+01
    -20.939  0.0000E+00  0.4000E+01
    -20.844  0.0000E+00  0.4000E+01
    -20.749  0.0000E+00  0.4000E+01
    -20.655  0.0000E+00  0.4000E+01
    -20.560  0.0000E+00  0.4000E+01
    -20.466  0.0000E+00  0.4000E+01
    -20.371  0.0000E+00  0.4000E+01
    -20.277  0.0000E+00  0.4000E+01
    -20.182  0.0000E+00  0.4000E+01
    -20.088  0.0000E+00  0.4000E+01
    -19.993  0.0000E+00  0.4000E+01
    -19.899  0.0000E+00  0.4000E+01
    -19.804  0.0000E+00  0.4000E+01
    -19.710  0.0000E+00  0.4000E+01
    -19.615  0.0000E+00  0.4000E+01
    -19.521  0.0000E+00  0.4000E+01
    -19.426  0.0000E+00  0.4000E+01
    -19.331  0.0000E+00  0.4000E+01
    -19.237  0.0000E+00  0.4000E+01
    -19.142  0.0000E+00  0.4000E+01
    -19.048  0.0000E+00  0.4000E+01
    -18.953  0.0000E+00  0.4000E+01
    -18.859  0.0000E+00  0.4000E+01
    -18.764  0.0000E+00  0.4000E+01
    -18.670  0.0000E+00  0.4000E+01
    -18.575  0.0000E+00  0.4000E+01
    -18.481  0.0000E+00  0.4000E+01
    -18.386  0.0000E+00  0.4000E+01
    -18.292  0.0000E+00  0.4000E+01
    -18.197  0.0000E+00  0.4000E+01
    -18.103  0.0000E+00  0.4000E+01
    -18.008  0.0000E+00  0.4000E+01
    -17.913  0.0000E+00  0.4000E+01
    -17.819  0.0000E+00  0.4000E+01
    -17.724  0.0000E+00  0.4000E+01
    -17.630  0.0000E+00  0.4000E+01
    -17.535  0.0000E+00  0.4000E+01
    -17.441  0.0000E+00  0.4000E+01
    -17.346  0.0000E+00  0.4000E+01
    -17.252  0.0000E+00  0.4000E+01
    -17.157  0.0000E+00  0.4000E+01
    -17.063  0.0000E+00  0.4000E+01
    -16.968  0.0000E+00  0.4000E+01
    -16.874  0.0000E+00  0.4000E+01
    -16.779  0.0000E+00  0.4000E+01
    -16.685  0.0000E+00  0.4000E+01
    -16.590  0.0000E+00  0.4000E+01
    -16.495  0.0000E+00  0.4000E+01
    -16.401  0.0000E+00  0.4000E+01
    -16.306  0.0000E+00  0.4000E+01
    -16.212  0.0000E+00  0.4000E+01
    -16.117  0.0000E+00  0.4000E+01
    -16.023  0.0000E+00  0.4000E+01
    -15.928  0.0000E+00  0.4000E+01
    -15.834  0.0000E+00  0.4000E+01
    -15.739  0.0000E+00  0.4000E+01
    -15.645  0.0000E+00  0.4000E+01
    -15.550  0.0000E+00  0.4000E+01
    -15.456  0.0000E+00  0.4000E+01
    -15.361  0.0000E+00  0.4000E+01
    -15.267  0.0000E+00  0.4000E+01
    -15.172  0.0000E+00  0.4000E+01
    -15.078  0.0000E+00  0.4000E+01
    -14.983  0.0000E+00  0.4000E+01
    -14.888  0.0000E+00  0.4000E+01
    -14.794  0.0000E+00  0.4000E+01
    -14.699  0.0000E+00  0.4000E+01
    -14.605  0.0000E+00  0.4000E+01
    -14.510  0.0000E+00  0.4000E+01
    -14.416  0.0000E+00  0.4000E+01
    -14.321  0.0000E+00  0.4000E+01
    -14.227  0.0000E+00  0.4000E+01
    -14.132  0.0000E+00  0.4000E+01
    -14.038  0.0000E+00  0.4000E+01
    -13.943  0.0000E+00  0.4000E+01
    -13.849  0.0000E+00  0.4000E+01
    -13.754  0.0000E+00  0.4000E+01
    -13.660  0.0000E+00  0.4000E+01
    -13.565  0.8476E-10  0.4000E+01
    -13.470  0.3300E-03  0.4000E+01
    -13.376  0.1439E+01  0.4136E+01
    -13.281  0.1721E+02  0.5763E+01
    -13.187  0.2504E+01  0.6000E+01
    -13.092  0.1215E-02  0.6000E+01
    -12.998  0.6929E-09  0.6000E+01
    -12.903  0.0000E+00  0.6000E+01
    -12.809  0.0000E+00  0.6000E+01
    -12.714  0.0000E+00  0.6000E+01
    -12.620  0.0000E+00  0.6000E+01
    -12.525  0.0000E+00  0.6000E+01
    -12.431  0.0000E+00  0.6000E+01
    -12.336  0.0000E+00  0.6000E+01
    -12.242  0.0000E+00  0.6000E+01
    -12.147  0.0000E+00  0.6000E+01
    -12.052  0.1252E-11  0.6000E+01
    -11.958  0.2208E-04  0.6000E+01
    -11.863  0.4057E+00  0.6038E+01
    -11.769  0.1497E+02  0.7453E+01
    -11.674  0.5772E+01  0.7999E+01
    -11.580  0.1112E-01  0.8000E+01
    -11.485  0.2831E-07  0.8000E+01
    -11.391  0.0000E+00  0.8000E+01
    -11.296  0.0000E+00  0.8000E+01
    -11.202  0.0000E+00  0.8000E+01
    -11.107  0.0000E+00  0.8000E+01
    -11.013  0.0000E+00  0.8000E+01
    -10.918  0.0000E+00  0.8000E+01
    -10.824  0.0000E+00  0.8000E+01
    -10.729  0.0000E+00  0.8000E+01
    -10.634  0.0000E+00  0.8000E+01
    -10.540  0.0000E+00  0.8000E+01
    -10.445  0.1545E-10  0.8000E+01
    -10.351  0.1122E-03  0.8000E+01
    -10.256  0.8834E+00  0.8084E+01
    -10.162  0.1662E+02  0.9654E+01
    -10.067  0.3653E+01  0.1000E+02
     -9.973  0.3154E-02  0.1000E+02
     -9.878  0.3343E-08  0.1000E+02
     -9.784  0.0000E+00  0.1000E+02
     -9.689  0.0000E+00  0.1000E+02
     -9.595  0.0000E+00  0.1000E+02
     -9.500  0.0000E+00  0.1000E+02
     -9.406  0.0000E+00  0.1000E+02
     -9.311  0.0000E+00  0.1000E+02
     -9.216  0.0000E+00  0.1000E+02
     -9.122  0.0000E+00  0.1000E+02
     -9.027  0.0000E+00  0.1000E+02
     -8.933  0.0000E+00  0.1000E+02
     -8.838  0.0000E+00  0.1000E+02
     -8.744  0.7280E-07  0.1000E+02
     -8.649  0.1913E-01  0.1000E+02
     -8.555  0.6914E+01  0.1066E+02
     -8.460  0.1395E+02  0.1197E+02
     -8.366  0.2741E+00  0.1200E+02
     -8.271  0.1007E-04  0.1200E+02
     -8.177  0.3805E-12  0.1200E+02
     -8.082  0.0000E+00  0.1200E+02
     -7.988  0.3000E-08  0.1200E+02
     -7.893  0.2955E-02  0.1200E+02
     -7.798  0.3563E+01  0.1234E+02
     -7.704  0.1668E+02  0.1391E+02
     -7.609  0.9155E+00  0.1400E+02
     -7.515  0.1212E-03  0.1400E+02
     -7.420  0.1743E-10  0.1400E+02
     -7.326  0.0000E+00  0.1400E+02
     -7.231  0.0000E+00  0.1400E+02
     -7.137  0.0000E+00  0.1400E+02
     -7.042  0.0000E+00  0.1400E+02
     -6.948  0.0000E+00  0.1400E+02
     -6.853  0.0000E+00  0.1400E+02
     -6.759  0.0000E+00  0.1400E+02
     -6.664  0.0000E+00  0.1400E+02
     -6.570  0.0000E+00  0.1400E+02
     -6.475  0.5241E-09  0.1400E+02
     -6.381  0.1024E-02  0.1400E+02
     -6.286  0.2333E+01  0.1422E+02
     -6.191  0.1726E+02  0.1585E+02
     -6.097  0.1558E+01  0.1600E+02
     -6.002  0.3958E-03  0.1600E+02
     -5.908  0.1133E-09  0.1600E+02
     -5.813  0.0000E+00  0.1600E+02
     -5.719  0.0000E+00  0.1600E+02
     -5.624  0.0000E+00  0.1600E+02
     -5.530  0.0000E+00  0.1600E+02
     -5.435  0.0000E+00  0.1600E+02
     -5.341  0.0000E+00  0.1600E+02
     -5.246  0.0000E+00  0.1600E+02
     -5.152  0.0000E+00  0.1600E+02
     -5.057  0.0000E+00  0.1600E+02
     -4.963  0.0000E+00  0.1600E+02
     -4.868  0.0000E+00  0.1600E+02
     -4.773  0.0000E+00  0.1600E+02
     -4.679  0.0000E+00  0.1600E+02
     -4.584  0.0000E+00  0.1600E+02
     -4.490  0.0000E+00  0.1600E+02
     -4.395  0.0000E+00  0.1600E+02
     -4.301  0.0000E+00  0.1600E+02
     -4.206  0.0000E+00  0.1600E+02
     -4.112  0.0000E+00  0.1600E+02
     -4.017  0.0000E+00  0.1600E+02
     -3.923  0.0000E+00  0.1600E+02
     -3.828  0.0000E+00  0.1600E+02
     -3.734  0.0000E+00  0.1600E+02
     -3.639  0.0000E+00  0.1600E+02
     -3.545  0.0000E+00  0.1600E+02
     -3.450  0.0000E+00  0.1600E+02
     -3.355  0.0000E+00  0.1600E+02
     -3.261  0.0000E+00  0.1600E+02
     -3.166  0.0000E+00  0.1600E+02
     -3.072  0.0000E+00  0.1600E+02
     -2.977  0.0000E+00  0.1600E+02
     -2.883  0.0000E+00  0.1600E+02
     -2.788  0.0000E+00  0.1600E+02
     -2.694  0.0000E+00  0.1600E+02
     -2.599  0.0000E+00  0.1600E+02
     -2.505  0.0000E+00  0.1600E+02
     -2.410  0.0000E+00  0.1600E+02
     -2.316  0.0000E+00  0.1600E+02
     -2.221  0.0000E+00  0.1600E+02
     -2.127  0.0000E+00  0.1600E+02
     -2.032  0.0000E+00  0.1600E+02
     -1.937  0.0000E+00  0.1600E+02
     -1.843  0.0000E+00  0.1600E+02
     -1.748  0.1268E-07  0.1600E+02
     -1.654  0.6956E-02  0.1600E+02
     -1.559  0.4897E+01  0.1646E+02
     -1.465  0.1570E+02  0.1795E+02
     -1.370  0.5529E+00  0.1800E+02
     -1.276  0.4165E-04  0.1800E+02
     -1.181  0.3317E-11  0.1800E+02
     -1.087  0.0000E+00  0.1800E+02
     -0.992  0.0000E+00  0.1800E+02
     -0.898  0.0000E+00  0.1800E+02
     -0.803  0.0000E+00  0.1800E+02
     -0.709  0.0000E+00  0.1800E+02
     -0.614  0.0000E+00  0.1800E+02
     -0.519  0.0000E+00  0.1800E+02
     -0.425  0.5536E-11  0.1800E+02
     -0.330  0.5801E-04  0.1800E+02
     -0.236  0.6480E+00  0.1806E+02
     -0.141  0.1604E+02  0.1958E+02
     -0.047  0.5240E+01  0.2007E+02
      0.048  0.1640E+02  0.2162E+02
      0.142  0.7514E+01  0.2233E+02
      0.237  0.1670E+02  0.2391E+02
      0.331  0.9274E+00  0.2400E+02
      0.426  0.1247E-03  0.2400E+02
      0.520  0.1823E-10  0.2400E+02
      0.615  0.0000E+00  0.2400E+02
      0.709  0.0000E+00  0.2400E+02
      0.804  0.0000E+00  0.2400E+02
      0.899  0.0000E+00  0.2400E+02
      0.993  0.0000E+00  0.2400E+02
      1.088  0.0000E+00  0.2400E+02
      1.182  0.0000E+00  0.2400E+02
      1.277  0.0000E+00  0.2400E+02
      1.371  0.0000E+00  0.2400E+02
      1.466  0.0000E+00  0.2400E+02
