    6    6    1    1
  0.5000000E+03  0.3000000E-08  0.1000000E-08  0.1000000E-08  0.5000000E-15
  1.000000000000000E-004
  CAR 
 unknown system                          
     16      2     12
 
  0.0000000E+00  0.2500000E+00  0.2500000E+00  0.5000000E+00
    1      -25.604998   1.000000
    2      -23.798324   1.000000
    3      -13.323213   1.000000
    4      -11.790176   1.000000
    5      -10.195157   1.000000
    6       -8.538981   1.000000
    7       -7.764557   1.000000
    8       -6.242675   1.000000
    9       -1.533434   0.000000
   10       -0.169559   0.000000
   11        0.015982   0.000000
   12        0.176616   0.000000
 
  0.0000000E+00 -0.2500000E+00  0.2500000E+00  0.5000000E+00
    1      -25.604998   1.000000
    2      -23.798324   1.000000
    3      -13.323213   1.000000
    4      -11.790176   1.000000
    5      -10.195157   1.000000
    6       -8.538981   1.000000
    7       -7.764557   1.000000
    8       -6.242675   1.000000
    9       -1.533433   0.000000
   10       -0.169876   0.000000
   11        0.016955   0.000000
   12        0.176172   0.000000
