 running on   32 total cores
 distrk:  each k-point on   32 cores,    1 groups
 distr:  one band on   16 cores,    2 groups
 using from now: INCAR     
 vasp.5.4.4.18Apr17-6-g9f103f2a35 (build Nov 25 2019 16:34:31) complex          
  
 POSCAR found type information on POSCAR  O  H 
 POSCAR found :  2 types and       6 ions
 scaLAPACK will be used

 ----------------------------------------------------------------------------- 
|                                                                             |
|           W    W    AA    RRRRR   N    N  II  N    N   GGGG   !!!           |
|           W    W   A  A   R    R  NN   N  II  NN   N  G    G  !!!           |
|           W    W  A    A  R    R  N N  N  II  N N  N  G       !!!           |
|           W WW W  AAAAAA  RRRRR   N  N N  II  N  N N  G  GGG   !            |
|           WW  WW  A    A  R   R   N   NN  II  N   NN  G    G                |
|           W    W  A    A  R    R  N    N  II  N    N   GGGG   !!!           |
|                                                                             |
|      For optimal performance we recommend to set                            |
|        NCORE= 4 - approx SQRT( number of cores)                             |
|      NCORE specifies how many cores store one orbital (NPAR=cpu/NCORE).     |
|      This setting can  greatly improve the performance of VASP for DFT.     |
|      The default,   NCORE=1            might be grossly inefficient         |
|      on modern multi-core architectures or massively parallel machines.     |
|      Do your own testing !!!!                                               |
|      Unfortunately you need to use the default for GW and RPA calculations. |
|      (for HF NCORE is supported but not extensively tested yet)             |
|                                                                             |
 ----------------------------------------------------------------------------- 

 LDA part: xc-table for Pade appr. of Perdew
 generate k-points for:    1    2    2
 POSCAR, INCAR and KPOINTS ok, starting setup
 FFT: planning ...
 WAVECAR not read
 WARNING: random wavefunctions but no delay for mixing, default for NELMDL
 entering main loop
       N       E                     dE             d eps       ncg     rms          rms(c)
DAV:   1     0.137185352886E+03    0.13719E+03   -0.49009E+03    72   0.142E+03
DAV:   2     0.498199986552E+02   -0.87365E+02   -0.85567E+02    72   0.158E+02
DAV:   3    -0.176138427886E+02   -0.67434E+02   -0.63402E+02    88   0.126E+02
DAV:   4    -0.316394933262E+02   -0.14026E+02   -0.13971E+02    72   0.656E+01
DAV:   5    -0.320521835239E+02   -0.41269E+00   -0.41243E+00    72   0.130E+01    0.179E+01
RMM:   6    -0.288631472965E+02    0.31890E+01   -0.12387E+01    64   0.254E+01    0.176E+01
RMM:   7    -0.288053786581E+02    0.57769E-01   -0.11687E+00    76   0.547E+00    0.156E+01
RMM:   8    -0.296158069935E+02   -0.81043E+00   -0.67275E+00    64   0.217E+01    0.120E+01
RMM:   9    -0.285634900508E+02    0.10523E+01   -0.24623E+00    64   0.116E+01    0.435E+00
RMM:  10    -0.285672138703E+02   -0.37238E-02   -0.21496E-01    76   0.270E+00    0.196E+00
RMM:  11    -0.285551949862E+02    0.12019E-01   -0.22124E-02    68   0.789E-01    0.975E-01
RMM:  12    -0.285493013757E+02    0.58936E-02   -0.79689E-02    60   0.165E+00    0.956E-01
RMM:  13    -0.285519215232E+02   -0.26201E-02   -0.10874E-02    72   0.518E-01    0.849E-01
RMM:  14    -0.285539848037E+02   -0.20633E-02   -0.85650E-04    64   0.170E-01    0.781E-01
RMM:  15    -0.285556074360E+02   -0.16226E-02   -0.97928E-03    60   0.737E-01    0.123E-01
RMM:  16    -0.285563057748E+02   -0.69834E-03   -0.25760E-03    74   0.332E-01    0.187E-01
RMM:  17    -0.285580375347E+02   -0.17318E-02   -0.10995E-03    56   0.211E-01    0.334E-01
RMM:  18    -0.285589596694E+02   -0.92213E-03   -0.13241E-03    62   0.209E-01    0.249E-01
RMM:  19    -0.285584941967E+02    0.46547E-03   -0.41889E-03    64   0.411E-01    0.167E-01
RMM:  20    -0.285580720870E+02    0.42211E-03   -0.54909E-04    68   0.123E-01    0.799E-02
RMM:  21    -0.285573353456E+02    0.73674E-03   -0.26972E-04    65   0.942E-02    0.114E-01
RMM:  22    -0.285573493667E+02   -0.14021E-04   -0.24745E-04    68   0.867E-02    0.190E-01
RMM:  23    -0.285568449713E+02    0.50440E-03   -0.93728E-04    58   0.196E-01    0.100E-01
RMM:  24    -0.285574479623E+02   -0.60299E-03   -0.15739E-03    62   0.243E-01    0.165E-01
RMM:  25    -0.285577065017E+02   -0.25854E-03   -0.27731E-04    64   0.809E-02    0.228E-01
RMM:  26    -0.285582253891E+02   -0.51889E-03   -0.15018E-04    59   0.780E-02    0.123E-01
RMM:  27    -0.285590428123E+02   -0.81742E-03   -0.10289E-03    52   0.203E-01    0.610E-02
RMM:  28    -0.285595900592E+02   -0.54725E-03   -0.18023E-04    70   0.632E-02    0.693E-02
RMM:  29    -0.285598724664E+02   -0.28241E-03   -0.13023E-05    66   0.213E-02    0.560E-02
RMM:  30    -0.285601209192E+02   -0.24845E-03   -0.32524E-05    64   0.354E-02    0.184E-02
RMM:  31    -0.285602575910E+02   -0.13667E-03   -0.14156E-05    72   0.213E-02    0.868E-03
RMM:  32    -0.285603139228E+02   -0.56332E-04   -0.83065E-06    64   0.160E-02    0.422E-03
RMM:  33    -0.285603400721E+02   -0.26149E-04   -0.11859E-06    70   0.550E-03    0.587E-03
RMM:  34    -0.285603520778E+02   -0.12006E-04   -0.36461E-07    64   0.319E-03    0.418E-03
RMM:  35    -0.285603549479E+02   -0.28701E-05   -0.25437E-07    68   0.308E-03    0.174E-03
RMM:  36    -0.285603579844E+02   -0.30365E-05   -0.21443E-07    66   0.267E-03    0.291E-04
RMM:  37    -0.285603586290E+02   -0.64455E-06   -0.61994E-08    58   0.137E-03    0.122E-03
RMM:  38    -0.285603590851E+02   -0.45615E-06   -0.10275E-08    48   0.733E-04    0.761E-04
RMM:  39    -0.285603593813E+02   -0.29623E-06   -0.37430E-08    50   0.114E-03    0.133E-04
RMM:  40    -0.285603594942E+02   -0.11289E-06   -0.16078E-08    46   0.852E-04    0.395E-04
RMM:  41    -0.285603594925E+02    0.17781E-08   -0.71366E-09    44   0.525E-04
   1 F= -.28560359E+02 E0= -.28560359E+02  d E =-.256225E-12
