<?xml version="1.0" encoding="ISO-8859-1"?>
<modeling>
 <generator>
  <i name="program" type="string">vasp </i>
  <i name="version" type="string">5.4.4.18Apr17-6-g9f103f2a35  </i>
  <i name="subversion" type="string">(build Nov 25 2019 16:34:31) complex            parallel </i>
  <i name="platform" type="string">LinuxIFC </i>
  <i name="date" type="string">2021 04 06 </i>
  <i name="time" type="string">12:18:04 </i>
 </generator>
 <incar>
  <i type="string" name="PREC">a</i>
  <i type="string" name="ALGO">fast</i>
  <i name="AMIN">      0.00500000</i>
  <i type="int" name="NELM">   300</i>
  <i type="int" name="NELMIN">     4</i>
  <i type="int" name="IBRION">    -1</i>
  <i name="EDIFF">      0.00000001</i>
  <i type="int" name="NSW">     0</i>
  <i type="int" name="ISIF">     2</i>
  <i name="ENCUT">   1500.00000000</i>
  <i type="logical" name="LREAL"> F  </i>
  <i type="int" name="ISMEAR">     0</i>
  <i name="SIGMA">      0.05000000</i>
  <i name="KSPACING">      0.50000000</i>
  <i type="logical" name="KGAMMA"> F  </i>
  <i name="PSTRESS">      0.00000000</i>
  <i type="logical" name="LWAVE"> F  </i>
  <i type="logical" name="LCHARG"> F  </i>
  <v type="int" name="KPOINT_BSE">    -1     0     0     0</v>
  <i type="int" name="NELM">   300</i>
 </incar>
 <structure name="primitive_cell" >
  <crystal>
   <varray name="basis" >
    <v>      30.00000000       0.00000000       0.00000000 </v>
    <v>       0.00000000      10.00000000       0.00000000 </v>
    <v>       0.00000000       0.00000000      10.00000000 </v>
   </varray>
   <i name="volume">   3000.00000000 </i>
   <varray name="rec_basis" >
    <v>       0.03333333       0.00000000       0.00000000 </v>
    <v>       0.00000000       0.10000000       0.00000000 </v>
    <v>       0.00000000       0.00000000       0.10000000 </v>
   </varray>
  </crystal>
  <varray name="positions" >
   <v>       0.04986896       0.15710957       0.17600000 </v>
   <v>       0.01647255       0.16672783       0.17649328 </v>
   <v>       0.06054413       0.25541218       0.17439231 </v>
   <v>      -0.04486896       0.15710957       0.17600000 </v>
   <v>      -0.05375150       0.09907990       0.09607226 </v>
   <v>      -0.05387697       0.09941802       0.25610440 </v>
  </varray>
 </structure>
 <varray name="primitive_index" >
  <v type="int" >        1 </v>
  <v type="int" >        4 </v>
  <v type="int" >        3 </v>
  <v type="int" >        2 </v>
  <v type="int" >        6 </v>
  <v type="int" >        5 </v>
 </varray>
 <kpoints>
  <generation param="Monkhorst-Pack">
   <v type="int" name="divisions">       1        2        2 </v>
   <v name="usershift">      0.00000000       0.00000000       0.00000000 </v>
   <v name="genvec1">      1.00000000       0.00000000       0.00000000 </v>
   <v name="genvec2">      0.00000000       0.50000000       0.00000000 </v>
   <v name="genvec3">      0.00000000       0.00000000       0.50000000 </v>
   <v name="shift">      0.00000000       0.50000000       0.50000000 </v>
  </generation>
  <varray name="kpointlist" >
   <v>       0.00000000       0.25000000       0.25000000 </v>
   <v>       0.00000000      -0.25000000       0.25000000 </v>
  </varray>
  <varray name="weights" >
   <v>       0.50000000 </v>
   <v>       0.50000000 </v>
  </varray>
 </kpoints>
 <parameters>
  <separator name="general" >
   <i type="string" name="SYSTEM">unknown system</i>
   <i type="logical" name="LCOMPAT"> F  </i>
  </separator>
  <separator name="electronic" >
   <i type="string" name="PREC">a</i>
   <i name="ENMAX">   1500.00000000</i>
   <i name="ENAUG">   1000.00000000</i>
   <i name="EDIFF">      0.00000001</i>
   <i type="int" name="IALGO">    68</i>
   <i type="int" name="IWAVPR">    10</i>
   <i type="int" name="NBANDS">    12</i>
   <i name="NELECT">     16.00000000</i>
   <i type="int" name="TURBO">     0</i>
   <i type="int" name="IRESTART">     0</i>
   <i type="int" name="NREBOOT">     0</i>
   <i type="int" name="NMIN">     0</i>
   <i name="EREF">      0.00000000</i>
   <separator name="electronic smearing" >
    <i type="int" name="ISMEAR">     0</i>
    <i name="SIGMA">      0.05000000</i>
    <i name="KSPACING">      0.50000000</i>
    <i type="logical" name="KGAMMA"> F  </i>
   </separator>
   <separator name="electronic projectors" >
    <i type="logical" name="LREAL"> F  </i>
    <v name="ROPT">      0.00000000      0.00000000</v>
    <i type="int" name="LMAXPAW">  -100</i>
    <i type="int" name="LMAXMIX">     2</i>
    <i type="logical" name="NLSPLINE"> F  </i>
   </separator>
   <separator name="electronic startup" >
    <i type="int" name="ISTART">     0</i>
    <i type="int" name="ICHARG">     2</i>
    <i type="int" name="INIWAV">     1</i>
   </separator>
   <separator name="electronic spin" >
    <i type="int" name="ISPIN">     1</i>
    <i type="logical" name="LNONCOLLINEAR"> F  </i>
    <v name="MAGMOM">      1.00000000      1.00000000      1.00000000      1.00000000      1.00000000      1.00000000</v>
    <i name="NUPDOWN">     -1.00000000</i>
    <i type="logical" name="LSORBIT"> F  </i>
    <v name="SAXIS">      0.00000000      0.00000000      1.00000000</v>
    <i type="logical" name="LSPIRAL"> F  </i>
    <v name="QSPIRAL">      0.00000000      0.00000000      0.00000000</v>
    <i type="logical" name="LZEROZ"> F  </i>
   </separator>
   <separator name="electronic exchange-correlation" >
    <i type="logical" name="LASPH"> F  </i>
    <i type="logical" name="LMETAGGA"> F  </i>
   </separator>
   <separator name="electronic convergence" >
    <i type="int" name="NELM">   300</i>
    <i type="int" name="NELMDL">     0</i>
    <i type="int" name="NELMIN">     4</i>
    <i name="ENINI">   1500.00000000</i>
    <separator name="electronic convergence detail" >
     <i type="logical" name="LDIAG"> T  </i>
     <i type="logical" name="LSUBROT"> F  </i>
     <i name="WEIMIN">      0.00000000</i>
     <i name="EBREAK">      0.00000000</i>
     <i name="DEPER">      0.30000000</i>
     <i type="int" name="NRMM">     4</i>
     <i name="TIME">      0.40000000</i>
    </separator>
   </separator>
   <separator name="electronic mixer" >
    <i name="AMIX">      0.40000000</i>
    <i name="BMIX">      1.00000000</i>
    <i name="AMIN">      0.00500000</i>
    <i name="AMIX_MAG">      1.60000000</i>
    <i name="BMIX_MAG">      1.00000000</i>
    <separator name="electronic mixer details" >
     <i type="int" name="IMIX">     4</i>
     <i type="logical" name="MIXFIRST"> F  </i>
     <i type="int" name="MAXMIX">   -45</i>
     <i name="WC">    100.00000000</i>
     <i type="int" name="INIMIX">     1</i>
     <i type="int" name="MIXPRE">     1</i>
     <i type="int" name="MREMOVE">     5</i>
    </separator>
   </separator>
   <separator name="electronic dipolcorrection" >
    <i type="logical" name="LDIPOL"> F  </i>
    <i type="logical" name="LMONO"> F  </i>
    <i type="int" name="IDIPOL">     0</i>
    <i name="EPSILON">      1.00000000</i>
    <v name="DIPOL">   -100.00000000   -100.00000000   -100.00000000</v>
    <i name="EFIELD">      0.00000000</i>
   </separator>
  </separator>
  <separator name="grids" >
   <i type="int" name="NGX">   384</i>
   <i type="int" name="NGY">   126</i>
   <i type="int" name="NGZ">   126</i>
   <i type="int" name="NGXF">   768</i>
   <i type="int" name="NGYF">   252</i>
   <i type="int" name="NGZF">   252</i>
   <i type="logical" name="ADDGRID"> F  </i>
  </separator>
  <separator name="ionic" >
   <i type="int" name="NSW">     0</i>
   <i type="int" name="IBRION">    -1</i>
   <i type="int" name="MDALGO">     0</i>
   <i type="int" name="ISIF">     2</i>
   <i name="PSTRESS">      0.00000000</i>
   <i name="EDIFFG">      0.00000010</i>
   <i type="int" name="NFREE">     0</i>
   <i name="POTIM">      0.50000000</i>
   <i name="SMASS">     -3.00000000</i>
   <i name="SCALEE">      1.00000000</i>
  </separator>
  <separator name="ionic md" >
   <i name="TEBEG">      0.00010000</i>
   <i name="TEEND">      0.00010000</i>
   <i type="int" name="NBLOCK">     1</i>
   <i type="int" name="KBLOCK">     1</i>
   <i type="int" name="NPACO">   256</i>
   <i name="APACO">     16.00000000</i>
  </separator>
  <separator name="symmetry" >
   <i type="int" name="ISYM">     2</i>
   <i name="SYMPREC">      0.00001000</i>
  </separator>
  <separator name="dos" >
   <i type="int" name="LORBIT">     0</i>
   <v name="RWIGS">     -1.00000000     -1.00000000</v>
   <i type="int" name="NEDOS">   301</i>
   <i name="EMIN">     10.00000000</i>
   <i name="EMAX">    -10.00000000</i>
   <i name="EFERMI">      0.00000000</i>
  </separator>
  <separator name="writing" >
   <i type="int" name="NWRITE">     2</i>
   <i type="logical" name="LWAVE"> F  </i>
   <i type="logical" name="LDOWNSAMPLE"> F  </i>
   <i type="logical" name="LCHARG"> F  </i>
   <i type="logical" name="LPARD"> F  </i>
   <i type="logical" name="LVTOT"> F  </i>
   <i type="logical" name="LVHAR"> F  </i>
   <i type="logical" name="LELF"> F  </i>
   <i type="logical" name="LOPTICS"> F  </i>
   <v name="STM">      0.00000000      0.00000000      0.00000000      0.00000000      0.00000000      0.00000000      0.00000000</v>
  </separator>
  <separator name="performance" >
   <i type="int" name="NPAR">     2</i>
   <i type="int" name="NSIM">     4</i>
   <i type="int" name="NBLK">    -1</i>
   <i type="logical" name="LPLANE"> T  </i>
   <i type="logical" name="LSCALAPACK"> T  </i>
   <i type="logical" name="LSCAAWARE"> F  </i>
   <i type="logical" name="LSCALU"> F  </i>
   <i type="logical" name="LASYNC"> F  </i>
   <i type="logical" name="LORBITALREAL"> F  </i>
  </separator>
  <separator name="miscellaneous" >
   <i type="int" name="IDIOT">     3</i>
   <i type="int" name="ISPECIAL">     0</i>
   <i type="logical" name="LMUSIC"> F  </i>
   <v name="POMASS">     16.00000000      1.00000000</v>
   <v name="DARWINR">      0.00000000      0.00000000</v>
   <v name="DARWINV">      1.00000000      1.00000000</v>
   <i type="logical" name="LCORR"> T  </i>
  </separator>
  <i type="logical" name="GGA_COMPAT"> T  </i>
  <i type="logical" name="LBERRY"> F  </i>
  <i type="int" name="ICORELEVEL">     0</i>
  <i type="logical" name="LDAU"> F  </i>
  <i type="int" name="I_CONSTRAINED_M">     0</i>
  <separator name="electronic exchange-correlation" >
   <i type="string" name="GGA">--</i>
   <i type="int" name="VOSKOWN">     0</i>
   <i type="logical" name="LHFCALC"> F  </i>
   <i type="string" name="PRECFOCK"></i>
   <i type="logical" name="LSYMGRAD"> F  </i>
   <i type="logical" name="LHFONE"> F  </i>
   <i type="logical" name="LRHFCALC"> F  </i>
   <i type="logical" name="LTHOMAS"> F  </i>
   <i type="logical" name="LMODELHF"> F  </i>
   <i name="ENCUT4O">     -1.00000000</i>
   <i type="int" name="EXXOEP">     0</i>
   <i type="int" name="FOURORBIT">     0</i>
   <i name="AEXX">      0.00000000</i>
   <i name="HFALPHA">      0.00000000</i>
   <i name="MCALPHA">      0.00000000</i>
   <i name="ALDAX">      1.00000000</i>
   <i name="AGGAX">      1.00000000</i>
   <i name="ALDAC">      1.00000000</i>
   <i name="AGGAC">      1.00000000</i>
   <i type="int" name="NKREDX">     1</i>
   <i type="int" name="NKREDY">     1</i>
   <i type="int" name="NKREDZ">     1</i>
   <i type="logical" name="SHIFTRED"> F  </i>
   <i type="logical" name="ODDONLY"> F  </i>
   <i type="logical" name="EVENONLY"> F  </i>
   <i type="int" name="LMAXFOCK">     0</i>
   <i type="int" name="NMAXFOCKAE">     0</i>
   <i type="logical" name="LFOCKAEDFT"> F  </i>
   <i name="HFSCREEN">      0.00000000</i>
   <i name="HFSCREENC">      0.00000000</i>
   <i type="int" name="NBANDSGWLOW">     0</i>
  </separator>
  <separator name="vdW DFT" >
   <i type="logical" name="LUSE_VDW"> F  </i>
   <i name="Zab_VDW">     -0.84910000</i>
   <i name="PARAM1">      0.12340000</i>
   <i name="PARAM2">      1.00000000</i>
   <i name="PARAM3">      0.00000000</i>
  </separator>
  <separator name="model GW" >
   <i type="int" name="MODEL_GW">     0</i>
   <i name="MODEL_EPS0">    300.00000000</i>
   <i name="MODEL_ALPHA">      1.00000000</i>
  </separator>
  <separator name="linear response parameters" >
   <i type="logical" name="LEPSILON"> F  </i>
   <i type="logical" name="LRPA"> F  </i>
   <i type="logical" name="LNABLA"> F  </i>
   <i type="logical" name="LVEL"> F  </i>
   <i type="int" name="KINTER">     0</i>
   <i name="CSHIFT">      0.10000000</i>
   <i name="OMEGAMAX">     -1.00000000</i>
   <i name="DEG_THRESHOLD">      0.00200000</i>
   <i name="RTIME">     -0.10000000</i>
   <i name="WPLASMAI">      0.00000000</i>
   <v name="DFIELD">      0.00000000      0.00000000      0.00000000</v>
   <v name="WPLASMA">      0.00000000      0.00000000      0.00000000      0.00000000      0.00000000      0.00000000      0.00000000      0.00000000      0.00000000</v>
  </separator>
  <separator name="orbital magnetization" >
   <i type="logical" name="NUCIND"> F  </i>
   <v name="MAGPOS">      0.00000000      0.00000000      0.00000000</v>
   <i type="logical" name="LNICSALL"> T  </i>
   <i type="logical" name="ORBITALMAG"> F  </i>
   <i type="logical" name="LMAGBLOCH"> F  </i>
   <i type="logical" name="LCHIMAG"> F  </i>
   <i type="logical" name="LGAUGE"> T  </i>
   <i type="int" name="MAGATOM">     0</i>
   <v name="MAGDIPOL">      0.00000000      0.00000000      0.00000000</v>
   <v name="AVECCONST">      0.00000000      0.00000000      0.00000000</v>
  </separator>
  <separator name="response functions" >
   <i type="logical" name="LADDER"> F  </i>
   <i type="logical" name="LRPAFORCE"> F  </i>
   <i type="logical" name="LFXC"> F  </i>
   <i type="logical" name="LHARTREE"> T  </i>
   <i type="int" name="IBSE">     0</i>
   <v type="int" name="KPOINT">    -1     0     0     0</v>
   <i type="logical" name="LTCTE"> F  </i>
   <i type="logical" name="LTETE"> F  </i>
   <i type="logical" name="LTRIPLET"> F  </i>
   <i type="logical" name="LFXCEPS"> F  </i>
   <i type="logical" name="LFXHEG"> F  </i>
   <i type="int" name="NATURALO">     2</i>
   <i type="logical" name="L2ORDER"> F  </i>
   <i type="logical" name="LMP2LT"> F  </i>
   <i type="logical" name="LUSEW"> F  </i>
   <i name="ENCUTGW">     -2.00000000</i>
   <i name="ENCUTGWSOFT">     -2.00000000</i>
   <i name="ENCUTLF">     -1.00000000</i>
   <i type="int" name="LMAXMP2">    -1</i>
   <i name="SCISSOR">      0.00000000</i>
   <i type="int" name="NOMEGA">     0</i>
   <i type="int" name="NOMEGAR">     0</i>
   <i type="int" name="NBANDSGW">    -1</i>
   <i type="int" name="NBANDSO">    -1</i>
   <i type="int" name="NBANDSV">    -1</i>
   <i type="int" name="NELM">   300</i>
   <i type="int" name="NELMHF">     1</i>
   <i type="int" name="DIM">     3</i>
   <i type="int" name="ANTIRES">     0</i>
   <i name="OMEGAMAX">    -30.00000000</i>
   <i name="OMEGAMIN">    -30.00000000</i>
   <i name="OMEGATL">   -200.00000000</i>
   <i type="int" name="OMEGAGRID">   140</i>
   <i name="CSHIFT">     -0.10000000</i>
   <i type="logical" name="SELFENERGY"> F  </i>
   <i type="logical" name="LSPECTRAL"> F  </i>
   <i type="logical" name="LSPECTRALGW"> F  </i>
   <i type="logical" name="LSINGLES"> F  </i>
   <i type="logical" name="LFERMIGW"> F  </i>
   <i type="logical" name="ODDONLYGW"> F  </i>
   <i type="logical" name="EVENONLYGW"> F  </i>
   <i type="int" name="NKREDLFX">     1</i>
   <i type="int" name="NKREDLFY">     1</i>
   <i type="int" name="NKREDLFZ">     1</i>
   <i type="int" name="MAXMEM">  2800</i>
   <i type="int" name="TELESCOPE">     0</i>
   <i type="int" name="TAUPAR">     1</i>
   <i type="int" name="OMEGAPAR">    -1</i>
   <i name="LAMBDA">      1.00000000</i>
  </separator>
  <separator name="External order field" >
   <i name="OFIELD_KAPPA">      0.00000000</i>
   <v name="OFIELD_K">      0.00000000      0.00000000      0.00000000</v>
   <i name="OFIELD_Q6_NEAR">      0.00000000</i>
   <i name="OFIELD_Q6_FAR">      0.00000000</i>
   <i name="OFIELD_A">      0.00000000</i>
  </separator>
 </parameters>
 <atominfo>
  <atoms>       6 </atoms>
  <types>       2 </types>
  <array name="atoms" >
   <dimension dim="1">ion</dimension>
   <field type="string">element</field>
   <field type="int">atomtype</field>
   <set>
    <rc><c>O </c><c>   1</c></rc>
    <rc><c>O </c><c>   1</c></rc>
    <rc><c>H </c><c>   2</c></rc>
    <rc><c>H </c><c>   2</c></rc>
    <rc><c>H </c><c>   2</c></rc>
    <rc><c>H </c><c>   2</c></rc>
   </set>
  </array>
  <array name="atomtypes" >
   <dimension dim="1">type</dimension>
   <field type="int">atomspertype</field>
   <field type="string">element</field>
   <field>mass</field>
   <field>valence</field>
   <field type="string">pseudopotential</field>
   <set>
    <rc><c>   2</c><c>O </c><c>     16.00000000</c><c>      6.00000000</c><c>  PAW_PBE O_h 06Feb2004                 </c></rc>
    <rc><c>   4</c><c>H </c><c>      1.00000000</c><c>      1.00000000</c><c>  PAW_PBE H_h 06Feb2004                 </c></rc>
   </set>
  </array>
 </atominfo>
 <structure name="initialpos" >
  <crystal>
   <varray name="basis" >
    <v>      30.00000000       0.00000000       0.00000000 </v>
    <v>       0.00000000      10.00000000       0.00000000 </v>
    <v>       0.00000000       0.00000000      10.00000000 </v>
   </varray>
   <i name="volume">   3000.00000000 </i>
   <varray name="rec_basis" >
    <v>       0.03333333       0.00000000       0.00000000 </v>
    <v>       0.00000000       0.10000000       0.00000000 </v>
    <v>       0.00000000       0.00000000       0.10000000 </v>
   </varray>
  </crystal>
  <varray name="positions" >
   <v>       0.04986896       0.15710957       0.17600000 </v>
   <v>       0.95513104       0.15710957       0.17600000 </v>
   <v>       0.06054413       0.25541218       0.17439231 </v>
   <v>       0.01647255       0.16672783       0.17649328 </v>
   <v>       0.94612303       0.09941802       0.25610440 </v>
   <v>       0.94624850       0.09907990       0.09607226 </v>
  </varray>
 </structure>
 <calculation>
  <scstep>
   <time name="dav">    3.51    3.52</time>
   <time name="total">    6.23    6.27</time>
   <energy>
    <i name="alphaZ">      0.21758540 </i>
    <i name="ewald">    528.54967223 </i>
    <i name="hartreedc">  -1253.39576277 </i>
    <i name="XCdc">     60.85662684 </i>
    <i name="pawpsdc">    697.41634940 </i>
    <i name="pawaedc">   -699.85762974 </i>
    <i name="eentropy">     -0.00000000 </i>
    <i name="bandstr">   -111.30515717 </i>
    <i name="atom">    914.70366869 </i>
    <i name="e_fr_energy">    137.18535289 </i>
    <i name="e_wo_entrp">    137.18535289 </i>
    <i name="e_0_energy">    137.18535289 </i>
   </energy>
  </scstep>
  <scstep>
   <time name="dav">    3.48    3.52</time>
   <time name="total">    3.48    3.52</time>
   <energy>
    <i name="e_fr_energy">     49.81999866 </i>
    <i name="e_wo_entrp">     49.81999866 </i>
    <i name="e_0_energy">     49.81999866 </i>
   </energy>
  </scstep>
  <scstep>
   <time name="dav">    4.09    4.10</time>
   <time name="total">    4.09    4.10</time>
   <energy>
    <i name="e_fr_energy">    -17.61384279 </i>
    <i name="e_wo_entrp">    -17.61384279 </i>
    <i name="e_0_energy">    -17.61384279 </i>
   </energy>
  </scstep>
  <scstep>
   <time name="dav">    3.50    3.51</time>
   <time name="total">    3.50    3.51</time>
   <energy>
    <i name="e_fr_energy">    -31.63949333 </i>
    <i name="e_wo_entrp">    -31.63949333 </i>
    <i name="e_0_energy">    -31.63949333 </i>
   </energy>
  </scstep>
  <scstep>
   <time name="dav">    3.48    3.49</time>
   <time name="total">    4.05    4.06</time>
   <energy>
    <i name="e_fr_energy">    -32.05218352 </i>
    <i name="e_wo_entrp">    -32.05218352 </i>
    <i name="e_0_energy">    -32.05218352 </i>
   </energy>
  </scstep>
  <scstep>
   <time name="diag">    0.67    0.67</time>
   <time name="diis">    3.60    3.62</time>
   <time name="orth">    0.02    0.02</time>
   <time name="total">    7.54    7.59</time>
   <energy>
    <i name="e_fr_energy">    -28.86314730 </i>
    <i name="e_wo_entrp">    -28.86314730 </i>
    <i name="e_0_energy">    -28.86314730 </i>
   </energy>
  </scstep>
  <scstep>
   <time name="diag">    0.66    0.66</time>
   <time name="diis">    4.27    4.28</time>
   <time name="orth">    0.02    0.02</time>
   <time name="total">    8.18    8.20</time>
   <energy>
    <i name="e_fr_energy">    -28.80537866 </i>
    <i name="e_wo_entrp">    -28.80537866 </i>
    <i name="e_0_energy">    -28.80537866 </i>
   </energy>
  </scstep>
  <scstep>
   <time name="diag">    0.66    0.66</time>
   <time name="diis">    3.69    3.72</time>
   <time name="orth">    0.03    0.03</time>
   <time name="total">    7.60    7.64</time>
   <energy>
    <i name="e_fr_energy">    -29.61580699 </i>
    <i name="e_wo_entrp">    -29.61580699 </i>
    <i name="e_0_energy">    -29.61580699 </i>
   </energy>
  </scstep>
  <scstep>
   <time name="diag">    0.66    0.67</time>
   <time name="diis">    3.59    3.60</time>
   <time name="orth">    0.02    0.02</time>
   <time name="total">    7.53    7.55</time>
   <energy>
    <i name="e_fr_energy">    -28.56349005 </i>
    <i name="e_wo_entrp">    -28.56349005 </i>
    <i name="e_0_energy">    -28.56349005 </i>
   </energy>
  </scstep>
  <scstep>
   <time name="diag">    0.67    0.67</time>
   <time name="diis">    4.26    4.27</time>
   <time name="orth">    0.02    0.02</time>
   <time name="total">    8.15    8.17</time>
   <energy>
    <i name="e_fr_energy">    -28.56721387 </i>
    <i name="e_wo_entrp">    -28.56721387 </i>
    <i name="e_0_energy">    -28.56721387 </i>
   </energy>
  </scstep>
  <scstep>
   <time name="diag">    0.67    0.67</time>
   <time name="diis">    3.83    3.84</time>
   <time name="orth">    0.02    0.02</time>
   <time name="total">    7.73    7.75</time>
   <energy>
    <i name="e_fr_energy">    -28.55519499 </i>
    <i name="e_wo_entrp">    -28.55519499 </i>
    <i name="e_0_energy">    -28.55519499 </i>
   </energy>
  </scstep>
  <scstep>
   <time name="diag">    0.66    0.67</time>
   <time name="diis">    3.43    3.44</time>
   <time name="orth">    0.02    0.02</time>
   <time name="total">    7.35    7.38</time>
   <energy>
    <i name="e_fr_energy">    -28.54930138 </i>
    <i name="e_wo_entrp">    -28.54930138 </i>
    <i name="e_0_energy">    -28.54930138 </i>
   </energy>
  </scstep>
  <scstep>
   <time name="diag">    0.66    0.67</time>
   <time name="diis">    4.06    4.09</time>
   <time name="orth">    0.02    0.02</time>
   <time name="total">    7.99    8.03</time>
   <energy>
    <i name="e_fr_energy">    -28.55192152 </i>
    <i name="e_wo_entrp">    -28.55192152 </i>
    <i name="e_0_energy">    -28.55192152 </i>
   </energy>
  </scstep>
  <scstep>
   <time name="diag">    0.66    0.67</time>
   <time name="diis">    3.65    3.65</time>
   <time name="orth">    0.02    0.02</time>
   <time name="total">    7.56    7.57</time>
   <energy>
    <i name="e_fr_energy">    -28.55398480 </i>
    <i name="e_wo_entrp">    -28.55398480 </i>
    <i name="e_0_energy">    -28.55398480 </i>
   </energy>
  </scstep>
  <scstep>
   <time name="diag">    0.66    0.66</time>
   <time name="diis">    3.44    3.44</time>
   <time name="orth">    0.02    0.02</time>
   <time name="total">    7.37    7.38</time>
   <energy>
    <i name="e_fr_energy">    -28.55560744 </i>
    <i name="e_wo_entrp">    -28.55560744 </i>
    <i name="e_0_energy">    -28.55560744 </i>
   </energy>
  </scstep>
  <scstep>
   <time name="diag">    0.67    0.67</time>
   <time name="diis">    4.18    4.25</time>
   <time name="orth">    0.02    0.02</time>
   <time name="total">    8.09    8.16</time>
   <energy>
    <i name="e_fr_energy">    -28.55630577 </i>
    <i name="e_wo_entrp">    -28.55630577 </i>
    <i name="e_0_energy">    -28.55630577 </i>
   </energy>
  </scstep>
  <scstep>
   <time name="diag">    0.67    0.67</time>
   <time name="diis">    3.23    3.23</time>
   <time name="orth">    0.02    0.02</time>
   <time name="total">    7.16    7.16</time>
   <energy>
    <i name="e_fr_energy">    -28.55803753 </i>
    <i name="e_wo_entrp">    -28.55803753 </i>
    <i name="e_0_energy">    -28.55803753 </i>
   </energy>
  </scstep>
  <scstep>
   <time name="diag">    0.67    0.67</time>
   <time name="diis">    3.51    3.51</time>
   <time name="orth">    0.02    0.02</time>
   <time name="total">    7.43    7.43</time>
   <energy>
    <i name="e_fr_energy">    -28.55895967 </i>
    <i name="e_wo_entrp">    -28.55895967 </i>
    <i name="e_0_energy">    -28.55895967 </i>
   </energy>
  </scstep>
  <scstep>
   <time name="diag">    0.66    0.66</time>
   <time name="diis">    3.64    3.65</time>
   <time name="orth">    0.02    0.02</time>
   <time name="total">    7.53    7.54</time>
   <energy>
    <i name="e_fr_energy">    -28.55849420 </i>
    <i name="e_wo_entrp">    -28.55849420 </i>
    <i name="e_0_energy">    -28.55849420 </i>
   </energy>
  </scstep>
  <scstep>
   <time name="diag">    0.67    0.67</time>
   <time name="diis">    3.84    3.84</time>
   <time name="orth">    0.02    0.02</time>
   <time name="total">    7.76    7.77</time>
   <energy>
    <i name="e_fr_energy">    -28.55807209 </i>
    <i name="e_wo_entrp">    -28.55807209 </i>
    <i name="e_0_energy">    -28.55807209 </i>
   </energy>
  </scstep>
  <scstep>
   <time name="diag">    0.66    0.66</time>
   <time name="diis">    3.75    3.76</time>
   <time name="orth">    0.02    0.02</time>
   <time name="total">    7.68    7.69</time>
   <energy>
    <i name="e_fr_energy">    -28.55733535 </i>
    <i name="e_wo_entrp">    -28.55733535 </i>
    <i name="e_0_energy">    -28.55733535 </i>
   </energy>
  </scstep>
  <scstep>
   <time name="diag">    0.66    0.66</time>
   <time name="diis">    3.85    3.85</time>
   <time name="orth">    0.02    0.02</time>
   <time name="total">    7.80    7.81</time>
   <energy>
    <i name="e_fr_energy">    -28.55734937 </i>
    <i name="e_wo_entrp">    -28.55734937 </i>
    <i name="e_0_energy">    -28.55734937 </i>
   </energy>
  </scstep>
  <scstep>
   <time name="diag">    0.68    0.68</time>
   <time name="diis">    3.29    3.29</time>
   <time name="orth">    0.03    0.03</time>
   <time name="total">    7.28    7.29</time>
   <energy>
    <i name="e_fr_energy">    -28.55684497 </i>
    <i name="e_wo_entrp">    -28.55684497 </i>
    <i name="e_0_energy">    -28.55684497 </i>
   </energy>
  </scstep>
  <scstep>
   <time name="diag">    0.67    0.67</time>
   <time name="diis">    3.54    3.62</time>
   <time name="orth">    0.02    0.02</time>
   <time name="total">    7.52    7.59</time>
   <energy>
    <i name="e_fr_energy">    -28.55744796 </i>
    <i name="e_wo_entrp">    -28.55744796 </i>
    <i name="e_0_energy">    -28.55744796 </i>
   </energy>
  </scstep>
  <scstep>
   <time name="diag">    0.66    0.66</time>
   <time name="diis">    3.63    3.63</time>
   <time name="orth">    0.02    0.02</time>
   <time name="total">    7.56    7.56</time>
   <energy>
    <i name="e_fr_energy">    -28.55770650 </i>
    <i name="e_wo_entrp">    -28.55770650 </i>
    <i name="e_0_energy">    -28.55770650 </i>
   </energy>
  </scstep>
  <scstep>
   <time name="diag">    0.66    0.66</time>
   <time name="diis">    3.40    3.40</time>
   <time name="orth">    0.02    0.02</time>
   <time name="total">    7.35    7.35</time>
   <energy>
    <i name="e_fr_energy">    -28.55822539 </i>
    <i name="e_wo_entrp">    -28.55822539 </i>
    <i name="e_0_energy">    -28.55822539 </i>
   </energy>
  </scstep>
  <scstep>
   <time name="diag">    0.66    0.66</time>
   <time name="diis">    2.94    2.94</time>
   <time name="orth">    0.02    0.02</time>
   <time name="total">    6.92    6.93</time>
   <energy>
    <i name="e_fr_energy">    -28.55904281 </i>
    <i name="e_wo_entrp">    -28.55904281 </i>
    <i name="e_0_energy">    -28.55904281 </i>
   </energy>
  </scstep>
  <scstep>
   <time name="diag">    0.66    0.66</time>
   <time name="diis">    3.99    3.99</time>
   <time name="orth">    0.02    0.02</time>
   <time name="total">    7.98    7.98</time>
   <energy>
    <i name="e_fr_energy">    -28.55959006 </i>
    <i name="e_wo_entrp">    -28.55959006 </i>
    <i name="e_0_energy">    -28.55959006 </i>
   </energy>
  </scstep>
  <scstep>
   <time name="diag">    0.66    0.66</time>
   <time name="diis">    3.77    3.78</time>
   <time name="orth">    0.02    0.02</time>
   <time name="total">    7.78    7.78</time>
   <energy>
    <i name="e_fr_energy">    -28.55987247 </i>
    <i name="e_wo_entrp">    -28.55987247 </i>
    <i name="e_0_energy">    -28.55987247 </i>
   </energy>
  </scstep>
  <scstep>
   <time name="diag">    0.66    0.66</time>
   <time name="diis">    3.66    3.67</time>
   <time name="orth">    0.02    0.02</time>
   <time name="total">    7.68    7.69</time>
   <energy>
    <i name="e_fr_energy">    -28.56012092 </i>
    <i name="e_wo_entrp">    -28.56012092 </i>
    <i name="e_0_energy">    -28.56012092 </i>
   </energy>
  </scstep>
  <scstep>
   <time name="diag">    0.66    0.66</time>
   <time name="diis">    4.10    4.11</time>
   <time name="orth">    0.02    0.02</time>
   <time name="total">    8.10    8.12</time>
   <energy>
    <i name="e_fr_energy">    -28.56025759 </i>
    <i name="e_wo_entrp">    -28.56025759 </i>
    <i name="e_0_energy">    -28.56025759 </i>
   </energy>
  </scstep>
  <scstep>
   <time name="diag">    0.65    0.67</time>
   <time name="diis">    3.63    3.64</time>
   <time name="orth">    0.02    0.02</time>
   <time name="total">    7.70    7.75</time>
   <energy>
    <i name="e_fr_energy">    -28.56031392 </i>
    <i name="e_wo_entrp">    -28.56031392 </i>
    <i name="e_0_energy">    -28.56031392 </i>
   </energy>
  </scstep>
  <scstep>
   <time name="diag">    0.67    0.67</time>
   <time name="diis">    3.99    3.99</time>
   <time name="orth">    0.02    0.02</time>
   <time name="total">    8.04    8.04</time>
   <energy>
    <i name="e_fr_energy">    -28.56034007 </i>
    <i name="e_wo_entrp">    -28.56034007 </i>
    <i name="e_0_energy">    -28.56034007 </i>
   </energy>
  </scstep>
  <scstep>
   <time name="diag">    0.68    0.68</time>
   <time name="diis">    3.66    3.66</time>
   <time name="orth">    0.02    0.02</time>
   <time name="total">    7.77    7.78</time>
   <energy>
    <i name="e_fr_energy">    -28.56035208 </i>
    <i name="e_wo_entrp">    -28.56035208 </i>
    <i name="e_0_energy">    -28.56035208 </i>
   </energy>
  </scstep>
  <scstep>
   <time name="diag">    0.66    0.66</time>
   <time name="diis">    3.89    3.89</time>
   <time name="orth">    0.02    0.02</time>
   <time name="total">    7.99    8.00</time>
   <energy>
    <i name="e_fr_energy">    -28.56035495 </i>
    <i name="e_wo_entrp">    -28.56035495 </i>
    <i name="e_0_energy">    -28.56035495 </i>
   </energy>
  </scstep>
  <scstep>
   <time name="diag">    0.67    0.67</time>
   <time name="diis">    3.73    3.74</time>
   <time name="orth">    0.02    0.02</time>
   <time name="total">    7.86    7.87</time>
   <energy>
    <i name="e_fr_energy">    -28.56035798 </i>
    <i name="e_wo_entrp">    -28.56035798 </i>
    <i name="e_0_energy">    -28.56035798 </i>
   </energy>
  </scstep>
  <scstep>
   <time name="diag">    0.67    0.67</time>
   <time name="diis">    3.35    3.36</time>
   <time name="orth">    0.02    0.02</time>
   <time name="total">    7.47    7.48</time>
   <energy>
    <i name="e_fr_energy">    -28.56035863 </i>
    <i name="e_wo_entrp">    -28.56035863 </i>
    <i name="e_0_energy">    -28.56035863 </i>
   </energy>
  </scstep>
  <scstep>
   <time name="diag">    0.67    0.67</time>
   <time name="diis">    2.85    2.85</time>
   <time name="orth">    0.02    0.02</time>
   <time name="total">    7.02    7.02</time>
   <energy>
    <i name="e_fr_energy">    -28.56035909 </i>
    <i name="e_wo_entrp">    -28.56035909 </i>
    <i name="e_0_energy">    -28.56035909 </i>
   </energy>
  </scstep>
  <scstep>
   <time name="diag">    0.66    0.66</time>
   <time name="diis">    2.93    2.93</time>
   <time name="orth">    0.02    0.02</time>
   <time name="total">    7.05    7.06</time>
   <energy>
    <i name="e_fr_energy">    -28.56035938 </i>
    <i name="e_wo_entrp">    -28.56035938 </i>
    <i name="e_0_energy">    -28.56035938 </i>
   </energy>
  </scstep>
  <scstep>
   <time name="diag">    0.68    0.69</time>
   <time name="diis">    2.70    2.70</time>
   <time name="orth">    0.02    0.02</time>
   <time name="total">    6.87    6.89</time>
   <energy>
    <i name="e_fr_energy">    -28.56035949 </i>
    <i name="e_wo_entrp">    -28.56035949 </i>
    <i name="e_0_energy">    -28.56035949 </i>
   </energy>
  </scstep>
  <scstep>
   <time name="diag">    0.67    0.67</time>
   <time name="diis">    2.67    2.68</time>
   <time name="orth">    0.02    0.02</time>
   <time name="total">    6.14    6.15</time>
   <energy>
    <i name="alphaZ">      0.21758540 </i>
    <i name="ewald">    528.54967223 </i>
    <i name="hartreedc">  -1318.77786079 </i>
    <i name="XCdc">     64.16756586 </i>
    <i name="pawpsdc">   5125.28299196 </i>
    <i name="pawaedc">  -5128.18781929 </i>
    <i name="eentropy">     -0.00000000 </i>
    <i name="bandstr">   -214.51616355 </i>
    <i name="atom">    914.70366869 </i>
    <i name="e_fr_energy">    -28.56035949 </i>
    <i name="e_wo_entrp">    -28.56035949 </i>
    <i name="e_0_energy">    -28.56035949 </i>
   </energy>
  </scstep>
  <structure>
   <crystal>
    <varray name="basis" >
     <v>      30.00000000       0.00000000       0.00000000 </v>
     <v>       0.00000000      10.00000000       0.00000000 </v>
     <v>       0.00000000       0.00000000      10.00000000 </v>
    </varray>
    <i name="volume">   3000.00000000 </i>
    <varray name="rec_basis" >
     <v>       0.03333333       0.00000000       0.00000000 </v>
     <v>       0.00000000       0.10000000       0.00000000 </v>
     <v>       0.00000000       0.00000000       0.10000000 </v>
    </varray>
   </crystal>
   <varray name="positions" >
    <v>       0.04986896       0.15710957       0.17600000 </v>
    <v>       0.95513104       0.15710957       0.17600000 </v>
    <v>       0.06054413       0.25541218       0.17439231 </v>
    <v>       0.01647255       0.16672783       0.17649328 </v>
    <v>       0.94612303       0.09941802       0.25610440 </v>
    <v>       0.94624850       0.09907990       0.09607226 </v>
   </varray>
  </structure>
  <varray name="forces" >
   <v>      -0.14110278       2.53016128      -0.03269632 </v>
   <v>      -1.18288692      -2.32952655       0.01827103 </v>
   <v>      -0.76496008      -2.42794470       0.04028966 </v>
   <v>       0.97483037      -0.10278510      -0.01065246 </v>
   <v>       0.56139250       1.16582134      -1.65845910 </v>
   <v>       0.55272691       1.16427373       1.64324719 </v>
  </varray>
  <varray name="stress" >
   <v>      -0.73403381      -0.69451742       0.01342714 </v>
   <v>      -0.69451744      -2.01868262       0.02229211 </v>
   <v>       0.01342713       0.02229211      -1.41882486 </v>
  </varray>
  <energy>
   <i name="e_fr_energy">    -28.56035949 </i>
   <i name="e_wo_entrp">    -28.56035949 </i>
   <i name="e_0_energy">     -0.00000000 </i>
  </energy>
  <time name="totalsc">  302.01  302.81</time>
  <eigenvalues>
   <array>
    <dimension dim="1">band</dimension>
    <dimension dim="2">kpoint</dimension>
    <dimension dim="3">spin</dimension>
    <field>eigene</field>
    <field>occ</field>
    <set>
     <set comment="spin 1">
      <set comment="kpoint 1">
       <r>  -25.6050    1.0000 </r>
       <r>  -23.7983    1.0000 </r>
       <r>  -13.3232    1.0000 </r>
       <r>  -11.7902    1.0000 </r>
       <r>  -10.1952    1.0000 </r>
       <r>   -8.5390    1.0000 </r>
       <r>   -7.7646    1.0000 </r>
       <r>   -6.2427    1.0000 </r>
       <r>   -1.5334    0.0000 </r>
       <r>   -0.1696    0.0000 </r>
       <r>    0.0160    0.0000 </r>
       <r>    0.1766    0.0000 </r>
      </set>
      <set comment="kpoint 2">
       <r>  -25.6050    1.0000 </r>
       <r>  -23.7983    1.0000 </r>
       <r>  -13.3232    1.0000 </r>
       <r>  -11.7902    1.0000 </r>
       <r>  -10.1952    1.0000 </r>
       <r>   -8.5390    1.0000 </r>
       <r>   -7.7646    1.0000 </r>
       <r>   -6.2427    1.0000 </r>
       <r>   -1.5334    0.0000 </r>
       <r>   -0.1699    0.0000 </r>
       <r>    0.0170    0.0000 </r>
       <r>    0.1762    0.0000 </r>
      </set>
     </set>
    </set>
   </array>
  </eigenvalues>
  <separator name="orbital magnetization" >
   <v name="MAGDIPOLOUT">      0.00000000      0.00000000      0.00000000</v>
  </separator>
  <dos>
   <i name="efermi">     -5.99056072 </i>
   <total>
    <array>
     <dimension dim="1">gridpoints</dimension>
     <dimension dim="2">spin</dimension>
     <field>energy</field>
     <field>total</field>
     <field>integrated</field>
     <set>
      <set comment="spin 1">
       <r>   -26.8941     0.0000     0.0000 </r>
       <r>   -26.7995     0.0000     0.0000 </r>
       <r>   -26.7050     0.0000     0.0000 </r>
       <r>   -26.6105     0.0000     0.0000 </r>
       <r>   -26.5159     0.0000     0.0000 </r>
       <r>   -26.4214     0.0000     0.0000 </r>
       <r>   -26.3269     0.0000     0.0000 </r>
       <r>   -26.2324     0.0000     0.0000 </r>
       <r>   -26.1378     0.0000     0.0000 </r>
       <r>   -26.0433     0.0000     0.0000 </r>
       <r>   -25.9488     0.0000     0.0000 </r>
       <r>   -25.8542     0.0000     0.0000 </r>
       <r>   -25.7597     0.0001     0.0000 </r>
       <r>   -25.6652     0.9398     0.0888 </r>
       <r>   -25.5706    16.7164     1.6691 </r>
       <r>   -25.4761     3.4977     1.9997 </r>
       <r>   -25.3816     0.0028     2.0000 </r>
       <r>   -25.2870     0.0000     2.0000 </r>
       <r>   -25.1925     0.0000     2.0000 </r>
       <r>   -25.0980     0.0000     2.0000 </r>
       <r>   -25.0034     0.0000     2.0000 </r>
       <r>   -24.9089     0.0000     2.0000 </r>
       <r>   -24.8144     0.0000     2.0000 </r>
       <r>   -24.7198     0.0000     2.0000 </r>
       <r>   -24.6253     0.0000     2.0000 </r>
       <r>   -24.5308     0.0000     2.0000 </r>
       <r>   -24.4362     0.0000     2.0000 </r>
       <r>   -24.3417     0.0000     2.0000 </r>
       <r>   -24.2472     0.0000     2.0000 </r>
       <r>   -24.1526     0.0000     2.0000 </r>
       <r>   -24.0581     0.0000     2.0000 </r>
       <r>   -23.9636     0.0000     2.0000 </r>
       <r>   -23.8690     0.4812     2.0455 </r>
       <r>   -23.7745    15.3812     3.4995 </r>
       <r>   -23.6800     5.2856     3.9992 </r>
       <r>   -23.5854     0.0086     4.0000 </r>
       <r>   -23.4909     0.0000     4.0000 </r>
       <r>   -23.3964     0.0000     4.0000 </r>
       <r>   -23.3018     0.0000     4.0000 </r>
       <r>   -23.2073     0.0000     4.0000 </r>
       <r>   -23.1128     0.0000     4.0000 </r>
       <r>   -23.0182     0.0000     4.0000 </r>
       <r>   -22.9237     0.0000     4.0000 </r>
       <r>   -22.8292     0.0000     4.0000 </r>
       <r>   -22.7346     0.0000     4.0000 </r>
       <r>   -22.6401     0.0000     4.0000 </r>
       <r>   -22.5456     0.0000     4.0000 </r>
       <r>   -22.4510     0.0000     4.0000 </r>
       <r>   -22.3565     0.0000     4.0000 </r>
       <r>   -22.2620     0.0000     4.0000 </r>
       <r>   -22.1674     0.0000     4.0000 </r>
       <r>   -22.0729     0.0000     4.0000 </r>
       <r>   -21.9784     0.0000     4.0000 </r>
       <r>   -21.8839     0.0000     4.0000 </r>
       <r>   -21.7893     0.0000     4.0000 </r>
       <r>   -21.6948     0.0000     4.0000 </r>
       <r>   -21.6003     0.0000     4.0000 </r>
       <r>   -21.5057     0.0000     4.0000 </r>
       <r>   -21.4112     0.0000     4.0000 </r>
       <r>   -21.3167     0.0000     4.0000 </r>
       <r>   -21.2221     0.0000     4.0000 </r>
       <r>   -21.1276     0.0000     4.0000 </r>
       <r>   -21.0331     0.0000     4.0000 </r>
       <r>   -20.9385     0.0000     4.0000 </r>
       <r>   -20.8440     0.0000     4.0000 </r>
       <r>   -20.7495     0.0000     4.0000 </r>
       <r>   -20.6549     0.0000     4.0000 </r>
       <r>   -20.5604     0.0000     4.0000 </r>
       <r>   -20.4659     0.0000     4.0000 </r>
       <r>   -20.3713     0.0000     4.0000 </r>
       <r>   -20.2768     0.0000     4.0000 </r>
       <r>   -20.1823     0.0000     4.0000 </r>
       <r>   -20.0877     0.0000     4.0000 </r>
       <r>   -19.9932     0.0000     4.0000 </r>
       <r>   -19.8987     0.0000     4.0000 </r>
       <r>   -19.8041     0.0000     4.0000 </r>
       <r>   -19.7096     0.0000     4.0000 </r>
       <r>   -19.6151     0.0000     4.0000 </r>
       <r>   -19.5205     0.0000     4.0000 </r>
       <r>   -19.4260     0.0000     4.0000 </r>
       <r>   -19.3315     0.0000     4.0000 </r>
       <r>   -19.2369     0.0000     4.0000 </r>
       <r>   -19.1424     0.0000     4.0000 </r>
       <r>   -19.0479     0.0000     4.0000 </r>
       <r>   -18.9533     0.0000     4.0000 </r>
       <r>   -18.8588     0.0000     4.0000 </r>
       <r>   -18.7643     0.0000     4.0000 </r>
       <r>   -18.6697     0.0000     4.0000 </r>
       <r>   -18.5752     0.0000     4.0000 </r>
       <r>   -18.4807     0.0000     4.0000 </r>
       <r>   -18.3861     0.0000     4.0000 </r>
       <r>   -18.2916     0.0000     4.0000 </r>
       <r>   -18.1971     0.0000     4.0000 </r>
       <r>   -18.1025     0.0000     4.0000 </r>
       <r>   -18.0080     0.0000     4.0000 </r>
       <r>   -17.9135     0.0000     4.0000 </r>
       <r>   -17.8190     0.0000     4.0000 </r>
       <r>   -17.7244     0.0000     4.0000 </r>
       <r>   -17.6299     0.0000     4.0000 </r>
       <r>   -17.5354     0.0000     4.0000 </r>
       <r>   -17.4408     0.0000     4.0000 </r>
       <r>   -17.3463     0.0000     4.0000 </r>
       <r>   -17.2518     0.0000     4.0000 </r>
       <r>   -17.1572     0.0000     4.0000 </r>
       <r>   -17.0627     0.0000     4.0000 </r>
       <r>   -16.9682     0.0000     4.0000 </r>
       <r>   -16.8736     0.0000     4.0000 </r>
       <r>   -16.7791     0.0000     4.0000 </r>
       <r>   -16.6846     0.0000     4.0000 </r>
       <r>   -16.5900     0.0000     4.0000 </r>
       <r>   -16.4955     0.0000     4.0000 </r>
       <r>   -16.4010     0.0000     4.0000 </r>
       <r>   -16.3064     0.0000     4.0000 </r>
       <r>   -16.2119     0.0000     4.0000 </r>
       <r>   -16.1174     0.0000     4.0000 </r>
       <r>   -16.0228     0.0000     4.0000 </r>
       <r>   -15.9283     0.0000     4.0000 </r>
       <r>   -15.8338     0.0000     4.0000 </r>
       <r>   -15.7392     0.0000     4.0000 </r>
       <r>   -15.6447     0.0000     4.0000 </r>
       <r>   -15.5502     0.0000     4.0000 </r>
       <r>   -15.4556     0.0000     4.0000 </r>
       <r>   -15.3611     0.0000     4.0000 </r>
       <r>   -15.2666     0.0000     4.0000 </r>
       <r>   -15.1720     0.0000     4.0000 </r>
       <r>   -15.0775     0.0000     4.0000 </r>
       <r>   -14.9830     0.0000     4.0000 </r>
       <r>   -14.8884     0.0000     4.0000 </r>
       <r>   -14.7939     0.0000     4.0000 </r>
       <r>   -14.6994     0.0000     4.0000 </r>
       <r>   -14.6048     0.0000     4.0000 </r>
       <r>   -14.5103     0.0000     4.0000 </r>
       <r>   -14.4158     0.0000     4.0000 </r>
       <r>   -14.3212     0.0000     4.0000 </r>
       <r>   -14.2267     0.0000     4.0000 </r>
       <r>   -14.1322     0.0000     4.0000 </r>
       <r>   -14.0376     0.0000     4.0000 </r>
       <r>   -13.9431     0.0000     4.0000 </r>
       <r>   -13.8486     0.0000     4.0000 </r>
       <r>   -13.7540     0.0000     4.0000 </r>
       <r>   -13.6595     0.0000     4.0000 </r>
       <r>   -13.5650     0.0000     4.0000 </r>
       <r>   -13.4705     0.0003     4.0000 </r>
       <r>   -13.3759     1.4386     4.1360 </r>
       <r>   -13.2814    17.2129     5.7632 </r>
       <r>   -13.1869     2.5037     5.9999 </r>
       <r>   -13.0923     0.0012     6.0000 </r>
       <r>   -12.9978     0.0000     6.0000 </r>
       <r>   -12.9033     0.0000     6.0000 </r>
       <r>   -12.8087     0.0000     6.0000 </r>
       <r>   -12.7142     0.0000     6.0000 </r>
       <r>   -12.6197     0.0000     6.0000 </r>
       <r>   -12.5251     0.0000     6.0000 </r>
       <r>   -12.4306     0.0000     6.0000 </r>
       <r>   -12.3361     0.0000     6.0000 </r>
       <r>   -12.2415     0.0000     6.0000 </r>
       <r>   -12.1470     0.0000     6.0000 </r>
       <r>   -12.0525     0.0000     6.0000 </r>
       <r>   -11.9579     0.0000     6.0000 </r>
       <r>   -11.8634     0.4057     6.0384 </r>
       <r>   -11.7689    14.9681     7.4533 </r>
       <r>   -11.6743     5.7718     7.9989 </r>
       <r>   -11.5798     0.0111     8.0000 </r>
       <r>   -11.4853     0.0000     8.0000 </r>
       <r>   -11.3907     0.0000     8.0000 </r>
       <r>   -11.2962     0.0000     8.0000 </r>
       <r>   -11.2017     0.0000     8.0000 </r>
       <r>   -11.1071     0.0000     8.0000 </r>
       <r>   -11.0126     0.0000     8.0000 </r>
       <r>   -10.9181     0.0000     8.0000 </r>
       <r>   -10.8235     0.0000     8.0000 </r>
       <r>   -10.7290     0.0000     8.0000 </r>
       <r>   -10.6345     0.0000     8.0000 </r>
       <r>   -10.5399     0.0000     8.0000 </r>
       <r>   -10.4454     0.0000     8.0000 </r>
       <r>   -10.3509     0.0001     8.0000 </r>
       <r>   -10.2563     0.8834     8.0835 </r>
       <r>   -10.1618    16.6173     9.6544 </r>
       <r>   -10.0673     3.6528     9.9997 </r>
       <r>    -9.9727     0.0032    10.0000 </r>
       <r>    -9.8782     0.0000    10.0000 </r>
       <r>    -9.7837     0.0000    10.0000 </r>
       <r>    -9.6891     0.0000    10.0000 </r>
       <r>    -9.5946     0.0000    10.0000 </r>
       <r>    -9.5001     0.0000    10.0000 </r>
       <r>    -9.4056     0.0000    10.0000 </r>
       <r>    -9.3110     0.0000    10.0000 </r>
       <r>    -9.2165     0.0000    10.0000 </r>
       <r>    -9.1220     0.0000    10.0000 </r>
       <r>    -9.0274     0.0000    10.0000 </r>
       <r>    -8.9329     0.0000    10.0000 </r>
       <r>    -8.8384     0.0000    10.0000 </r>
       <r>    -8.7438     0.0000    10.0000 </r>
       <r>    -8.6493     0.0191    10.0018 </r>
       <r>    -8.5548     6.9144    10.6554 </r>
       <r>    -8.4602    13.9491    11.9741 </r>
       <r>    -8.3657     0.2741    12.0000 </r>
       <r>    -8.2712     0.0000    12.0000 </r>
       <r>    -8.1766     0.0000    12.0000 </r>
       <r>    -8.0821     0.0000    12.0000 </r>
       <r>    -7.9876     0.0000    12.0000 </r>
       <r>    -7.8930     0.0030    12.0003 </r>
       <r>    -7.7985     3.5629    12.3371 </r>
       <r>    -7.7040    16.6753    13.9134 </r>
       <r>    -7.6094     0.9155    14.0000 </r>
       <r>    -7.5149     0.0001    14.0000 </r>
       <r>    -7.4204     0.0000    14.0000 </r>
       <r>    -7.3258     0.0000    14.0000 </r>
       <r>    -7.2313     0.0000    14.0000 </r>
       <r>    -7.1368     0.0000    14.0000 </r>
       <r>    -7.0422     0.0000    14.0000 </r>
       <r>    -6.9477     0.0000    14.0000 </r>
       <r>    -6.8532     0.0000    14.0000 </r>
       <r>    -6.7586     0.0000    14.0000 </r>
       <r>    -6.6641     0.0000    14.0000 </r>
       <r>    -6.5696     0.0000    14.0000 </r>
       <r>    -6.4750     0.0000    14.0000 </r>
       <r>    -6.3805     0.0010    14.0001 </r>
       <r>    -6.2860     2.3334    14.2207 </r>
       <r>    -6.1914    17.2639    15.8527 </r>
       <r>    -6.0969     1.5580    16.0000 </r>
       <r>    -6.0024     0.0004    16.0000 </r>
       <r>    -5.9078     0.0000    16.0000 </r>
       <r>    -5.8133     0.0000    16.0000 </r>
       <r>    -5.7188     0.0000    16.0000 </r>
       <r>    -5.6242     0.0000    16.0000 </r>
       <r>    -5.5297     0.0000    16.0000 </r>
       <r>    -5.4352     0.0000    16.0000 </r>
       <r>    -5.3406     0.0000    16.0000 </r>
       <r>    -5.2461     0.0000    16.0000 </r>
       <r>    -5.1516     0.0000    16.0000 </r>
       <r>    -5.0571     0.0000    16.0000 </r>
       <r>    -4.9625     0.0000    16.0000 </r>
       <r>    -4.8680     0.0000    16.0000 </r>
       <r>    -4.7735     0.0000    16.0000 </r>
       <r>    -4.6789     0.0000    16.0000 </r>
       <r>    -4.5844     0.0000    16.0000 </r>
       <r>    -4.4899     0.0000    16.0000 </r>
       <r>    -4.3953     0.0000    16.0000 </r>
       <r>    -4.3008     0.0000    16.0000 </r>
       <r>    -4.2063     0.0000    16.0000 </r>
       <r>    -4.1117     0.0000    16.0000 </r>
       <r>    -4.0172     0.0000    16.0000 </r>
       <r>    -3.9227     0.0000    16.0000 </r>
       <r>    -3.8281     0.0000    16.0000 </r>
       <r>    -3.7336     0.0000    16.0000 </r>
       <r>    -3.6391     0.0000    16.0000 </r>
       <r>    -3.5445     0.0000    16.0000 </r>
       <r>    -3.4500     0.0000    16.0000 </r>
       <r>    -3.3555     0.0000    16.0000 </r>
       <r>    -3.2609     0.0000    16.0000 </r>
       <r>    -3.1664     0.0000    16.0000 </r>
       <r>    -3.0719     0.0000    16.0000 </r>
       <r>    -2.9773     0.0000    16.0000 </r>
       <r>    -2.8828     0.0000    16.0000 </r>
       <r>    -2.7883     0.0000    16.0000 </r>
       <r>    -2.6937     0.0000    16.0000 </r>
       <r>    -2.5992     0.0000    16.0000 </r>
       <r>    -2.5047     0.0000    16.0000 </r>
       <r>    -2.4101     0.0000    16.0000 </r>
       <r>    -2.3156     0.0000    16.0000 </r>
       <r>    -2.2211     0.0000    16.0000 </r>
       <r>    -2.1265     0.0000    16.0000 </r>
       <r>    -2.0320     0.0000    16.0000 </r>
       <r>    -1.9375     0.0000    16.0000 </r>
       <r>    -1.8429     0.0000    16.0000 </r>
       <r>    -1.7484     0.0000    16.0000 </r>
       <r>    -1.6539     0.0070    16.0007 </r>
       <r>    -1.5593     4.8973    16.4636 </r>
       <r>    -1.4648    15.6995    17.9477 </r>
       <r>    -1.3703     0.5529    18.0000 </r>
       <r>    -1.2757     0.0000    18.0000 </r>
       <r>    -1.1812     0.0000    18.0000 </r>
       <r>    -1.0867     0.0000    18.0000 </r>
       <r>    -0.9922     0.0000    18.0000 </r>
       <r>    -0.8976     0.0000    18.0000 </r>
       <r>    -0.8031     0.0000    18.0000 </r>
       <r>    -0.7086     0.0000    18.0000 </r>
       <r>    -0.6140     0.0000    18.0000 </r>
       <r>    -0.5195     0.0000    18.0000 </r>
       <r>    -0.4250     0.0000    18.0000 </r>
       <r>    -0.3304     0.0001    18.0000 </r>
       <r>    -0.2359     0.6480    18.0613 </r>
       <r>    -0.1414    16.0398    19.5775 </r>
       <r>    -0.0468     5.2404    20.0729 </r>
       <r>     0.0477    16.4004    21.6233 </r>
       <r>     0.1422     7.5145    22.3337 </r>
       <r>     0.2368    16.6994    23.9123 </r>
       <r>     0.3313     0.9274    24.0000 </r>
       <r>     0.4258     0.0001    24.0000 </r>
       <r>     0.5204     0.0000    24.0000 </r>
       <r>     0.6149     0.0000    24.0000 </r>
       <r>     0.7094     0.0000    24.0000 </r>
       <r>     0.8040     0.0000    24.0000 </r>
       <r>     0.8985     0.0000    24.0000 </r>
       <r>     0.9930     0.0000    24.0000 </r>
       <r>     1.0876     0.0000    24.0000 </r>
       <r>     1.1821     0.0000    24.0000 </r>
       <r>     1.2766     0.0000    24.0000 </r>
       <r>     1.3712     0.0000    24.0000 </r>
       <r>     1.4657     0.0000    24.0000 </r>
      </set>
     </set>
    </array>
   </total>
  </dos>
 </calculation>
 <structure name="finalpos" >
  <crystal>
   <varray name="basis" >
    <v>      30.00000000       0.00000000       0.00000000 </v>
    <v>       0.00000000      10.00000000       0.00000000 </v>
    <v>       0.00000000       0.00000000      10.00000000 </v>
   </varray>
   <i name="volume">   3000.00000000 </i>
   <varray name="rec_basis" >
    <v>       0.03333333       0.00000000       0.00000000 </v>
    <v>       0.00000000       0.10000000       0.00000000 </v>
    <v>       0.00000000       0.00000000       0.10000000 </v>
   </varray>
  </crystal>
  <varray name="positions" >
   <v>       0.04986896       0.15710957       0.17600000 </v>
   <v>       0.95513104       0.15710957       0.17600000 </v>
   <v>       0.06054413       0.25541218       0.17439231 </v>
   <v>       0.01647255       0.16672783       0.17649328 </v>
   <v>       0.94612303       0.09941802       0.25610440 </v>
   <v>       0.94624850       0.09907990       0.09607226 </v>
  </varray>
 </structure>
</modeling>
