
     Program PWSCF v.5.4.0 starts on 22Sep2019 at 18:41:14 

     This program is part of the open-source Quantum ESPRESSO suite
     for quantum simulation of materials; please cite
         "P. Giannozzi et al., J. Phys.:Condens. Matter 21 395502 (2009);
          URL http://www.quantum-espresso.org", 
     in publications or presentations arising from this work. More details at
     http://www.quantum-espresso.org/quote

           HOST :    @host@
           ARCH :    
             CC :    cc
            CPP :    cpp
            F90 :    mpif90
            F77 :    gfortran
         DFLAGS :    -D__GFORTRAN -D__STD_F95 -D__FFTW3 -D__MPI -D__PARA
      BLAS LIBS :    -lopenblas
    LAPACK LIBS :    -lopenblas
       FFT LIBS :    -lfftw3
      MASS LIBS :    

     Parallel version (MPI), running on    28 processors
     R & G space division:  proc/nbgrp/npool/nimage =      28
     Waiting for input...
     Reading input from standard input
Warning: card &IONS ignored
Warning: card / ignored
Warning: card &CELL ignored
Warning: card / ignored

     Current dimensions of program PWSCF are:
     Max number of different atomic species (ntypx) = 10
     Max number of k-points (npk) =  40000
     Max angular momentum in pseudopotentials (lmaxx) =  3

     IMPORTANT: XC functional enforced from input :
     Exchange-correlation      = PBE ( 1  4  3  4 0 0)
     Any further DFT definition will be discarded
     Please, verify this is what you really want


     gamma-point specific algorithms are used

     Subspace diagonalization in iterative solution of the eigenvalue problem:
     a serial algorithm will be used


     Parallelization info
     --------------------
     sticks:   dense  smooth     PW     G-vecs:    dense   smooth      PW
     Min         445     445    110                37558    37558    4694
     Max         448     448    112                37564    37564    4708
     Sum       12517   12517   3125              1051747  1051747  131683
     Tot        6259    6259   1563



     bravais-lattice index     =            1
     lattice parameter (alat)  =      18.8973  a.u.
     unit-cell volume          =    6748.3346 (a.u.)^3
     number of atoms/cell      =            5
     number of atomic types    =            2
     number of electrons       =         8.00
     number of Kohn-Sham states=            4
     kinetic-energy cutoff     =     110.0000  Ry
     charge density cutoff     =     440.0000  Ry
     convergence threshold     =      1.0E-06
     mixing beta               =       0.5000
     number of iterations used =            8  plain     mixing
     Exchange-correlation      = PBE ( 1  4  3  4 0 0)

     celldm(1)=  18.897261  celldm(2)=   0.000000  celldm(3)=   0.000000
     celldm(4)=   0.000000  celldm(5)=   0.000000  celldm(6)=   0.000000

     crystal axes: (cart. coord. in units of alat)
               a(1) = (   1.000000   0.000000   0.000000 )  
               a(2) = (   0.000000   1.000000   0.000000 )  
               a(3) = (   0.000000   0.000000   1.000000 )  

     reciprocal axes: (cart. coord. in units 2 pi/alat)
               b(1) = (  1.000000  0.000000  0.000000 )  
               b(2) = (  0.000000  1.000000  0.000000 )  
               b(3) = (  0.000000  0.000000  1.000000 )  


     PseudoPot. # 1 for  H read from file:
     ../pseudo/H.tm.pbe.UPF
     MD5 check sum: 4b614d66af87240b7a5107bfa527a767
     Pseudo is Norm-conserving, Zval =  1.0
     Generated using "atomic" code by A. Dal Corso  v.5.2.0
     Using radial grid of  929 points,  0 beta functions with: 

     PseudoPot. # 2 for  C read from file:
     ../pseudo/C.tm.pbe.UPF
     MD5 check sum: a4f27fcb9b24331b00ace8e732a7e062
     Pseudo is Norm-conserving, Zval =  4.0
     Generated using "atomic" code by A. Dal Corso  v.5.2.0
     Using radial grid of 1073 points,  1 beta functions with: 
                l(1) =   1

     atomic species   valence    mass     pseudopotential
        H              1.00     1.00000      H( 1.00)
        C              4.00     1.00000      C( 1.00)

     No symmetry found



   Cartesian axes

     site n.     atom                  positions (alat units)
         1           H   tau(   1) = (   0.5325580   0.4113440   0.3580410  )
         2           H   tau(   2) = (   0.3946070   0.4867150   0.4396500  )
         3           H   tau(   3) = (   0.5507330   0.5661250   0.4403980  )
         4           H   tau(   4) = (   0.5260460   0.4173500   0.5374310  )
         5           C   tau(   5) = (   0.5027980   0.4677040   0.4446480  )

     number of k points=     1
                       cart. coord. in units 2pi/alat
        k(    1) = (   0.0000000   0.0000000   0.0000000), wk =   2.0000000

     Dense  grid:   525874 G-vectors     FFT dimensions: ( 128, 128, 128)

     Largest allocated arrays     est. size (Mb)     dimensions
        Kohn-Sham Wavefunctions         0.14 Mb     (    2354,    4)
        NL pseudopotentials             0.11 Mb     (    2354,    3)
        Each V/rho on FFT grid          1.25 Mb     (   81920)
        Each G-vector array             0.14 Mb     (   18782)
        G-vector shells                 0.02 Mb     (    2785)
     Largest temporary arrays     est. size (Mb)     dimensions
        Auxiliary wavefunctions         0.29 Mb     (    2354,   16)
        Each subspace H/S matrix        0.00 Mb     (      16,   16)
        Each <psi_i|beta_j> matrix      0.00 Mb     (       3,    4)
        Arrays for rho mixing          10.00 Mb     (   81920,    8)

     Initial potential from superposition of free atoms
     Check: negative starting charge=   -0.000388

     starting charge    7.99992, renormalised to    8.00000

     negative rho (up, down):  3.881E-04 0.000E+00
     Starting wfc are    8 randomized atomic wfcs

     total cpu time spent up to now is        2.9 secs

     per-process dynamical memory:   430.8 Mb

     Self-consistent Calculation

     iteration #  1     ecut=   110.00 Ry     beta=0.50
     Davidson diagonalization with overlap
     ethr =  1.00E-02,  avg # of iterations =  2.0

     negative rho (up, down):  1.830E-04 0.000E+00

     total cpu time spent up to now is        3.4 secs

     total energy              =     -16.01745819 Ry
     Harris-Foulkes estimate   =     -16.41891528 Ry
     estimated scf accuracy    <       0.71283123 Ry

     iteration #  2     ecut=   110.00 Ry     beta=0.50
     Davidson diagonalization with overlap
     ethr =  8.91E-03,  avg # of iterations =  2.0

     negative rho (up, down):  9.528E-05 0.000E+00

     total cpu time spent up to now is        3.9 secs

     total energy              =     -16.15338140 Ry
     Harris-Foulkes estimate   =     -16.17210909 Ry
     estimated scf accuracy    <       0.04907560 Ry

     iteration #  3     ecut=   110.00 Ry     beta=0.50
     Davidson diagonalization with overlap
     ethr =  6.13E-04,  avg # of iterations =  1.0

     negative rho (up, down):  4.711E-06 0.000E+00

     total cpu time spent up to now is        4.4 secs

     total energy              =     -16.15144099 Ry
     Harris-Foulkes estimate   =     -16.15687113 Ry
     estimated scf accuracy    <       0.01139251 Ry

     iteration #  4     ecut=   110.00 Ry     beta=0.50
     Davidson diagonalization with overlap
     ethr =  1.42E-04,  avg # of iterations =  2.0

     negative rho (up, down):  4.772E-06 0.000E+00

     total cpu time spent up to now is        5.0 secs

     total energy              =     -16.15331961 Ry
     Harris-Foulkes estimate   =     -16.15535126 Ry
     estimated scf accuracy    <       0.00473275 Ry

     iteration #  5     ecut=   110.00 Ry     beta=0.50
     Davidson diagonalization with overlap
     ethr =  5.92E-05,  avg # of iterations =  1.0

     negative rho (up, down):  1.976E-06 0.000E+00

     total cpu time spent up to now is        5.4 secs

     total energy              =     -16.15349633 Ry
     Harris-Foulkes estimate   =     -16.15370386 Ry
     estimated scf accuracy    <       0.00039542 Ry

     iteration #  6     ecut=   110.00 Ry     beta=0.50
     Davidson diagonalization with overlap
     ethr =  4.94E-06,  avg # of iterations =  3.0

     negative rho (up, down):  3.761E-08 0.000E+00

     total cpu time spent up to now is        6.0 secs

     total energy              =     -16.15370650 Ry
     Harris-Foulkes estimate   =     -16.15374347 Ry
     estimated scf accuracy    <       0.00007862 Ry

     iteration #  7     ecut=   110.00 Ry     beta=0.50
     Davidson diagonalization with overlap
     ethr =  9.83E-07,  avg # of iterations =  2.0

     total cpu time spent up to now is        6.6 secs

     total energy              =     -16.15372028 Ry
     Harris-Foulkes estimate   =     -16.15372069 Ry
     estimated scf accuracy    <       0.00000119 Ry

     iteration #  8     ecut=   110.00 Ry     beta=0.50
     Davidson diagonalization with overlap
     ethr =  1.49E-08,  avg # of iterations =  1.0

     total cpu time spent up to now is        7.0 secs

     End of self-consistent calculation

          k = 0.0000 0.0000 0.0000 ( 65842 PWs)   bands (ev):

   -16.8910  -9.4790  -9.2895  -9.0765

     highest occupied level (ev):    -9.0765

!    total energy              =     -16.15372013 Ry
     Harris-Foulkes estimate   =     -16.15372034 Ry
     estimated scf accuracy    <       0.00000034 Ry

     The total energy is the sum of the following terms:

     one-electron contribution =     -40.47287863 Ry
     hartree contribution      =      21.06496031 Ry
     xc contribution           =      -6.36467010 Ry
     ewald contribution        =       9.61886829 Ry

     convergence has been achieved in   8 iterations

     Forces acting on atoms (Ry/au):

     atom    1 type  1   force =     0.00890651   -0.01951238   -0.01725417
     atom    2 type  1   force =     0.00032036   -0.00613666    0.00078049
     atom    3 type  1   force =     0.00737312   -0.00022427    0.00452636
     atom    4 type  1   force =     0.00774611   -0.01000374    0.01268193
     atom    5 type  2   force =    -0.02434610    0.03587705   -0.00073461

     Total force =     0.055429     Total SCF correction =     0.000363


     entering subroutine stress ...

          total   stress  (Ry/bohr**3)                   (kbar)     P=    0.38
   0.00000017  -0.00000045  -0.00000024          0.03     -0.07     -0.04
  -0.00000045   0.00000214   0.00000222         -0.07      0.31      0.33
  -0.00000024   0.00000222   0.00000546         -0.04      0.33      0.80


     init_run     :      2.52s CPU      2.54s WALL (       1 calls)
     electrons    :      4.06s CPU      4.12s WALL (       1 calls)
     forces       :      0.91s CPU      0.91s WALL (       1 calls)
     stress       :      1.10s CPU      1.10s WALL (       1 calls)

     Called by init_run:
     wfcinit      :      0.20s CPU      0.20s WALL (       1 calls)
     potinit      :      0.95s CPU      0.96s WALL (       1 calls)

     Called by electrons:
     c_bands      :      1.87s CPU      1.89s WALL (       8 calls)
     sum_band     :      0.43s CPU      0.44s WALL (       8 calls)
     v_of_rho     :      1.72s CPU      1.77s WALL (       9 calls)
     mix_rho      :      0.20s CPU      0.20s WALL (       8 calls)

     Called by c_bands:
     init_us_2    :      0.04s CPU      0.04s WALL (      17 calls)
     regterg      :      1.84s CPU      1.85s WALL (       8 calls)

     Called by sum_band:

     Called by *egterg:
     h_psi        :      1.99s CPU      2.00s WALL (      23 calls)
     g_psi        :      0.01s CPU      0.01s WALL (      14 calls)
     rdiaghg      :      0.00s CPU      0.00s WALL (      22 calls)

     Called by h_psi:
     add_vuspsi   :      0.00s CPU      0.00s WALL (      23 calls)

     General routines
     calbec       :      0.57s CPU      0.57s WALL (      28 calls)
     fft          :      1.66s CPU      1.71s WALL (     106 calls)
     fftw         :      1.44s CPU      1.45s WALL (     112 calls)

     Parallel routines
     fft_scatter  :      1.44s CPU      1.47s WALL (     218 calls)

     PWSCF        :     8.95s CPU         9.08s WALL


   This run was terminated on:  18:41:23  22Sep2019            

=------------------------------------------------------------------------------=
   JOB DONE.
=------------------------------------------------------------------------------=
