
     Program PWSCF v.5.4.0 starts on 22Sep2019 at 18:51:16 

     This program is part of the open-source Quantum ESPRESSO suite
     for quantum simulation of materials; please cite
         "P. Giannozzi et al., J. Phys.:Condens. Matter 21 395502 (2009);
          URL http://www.quantum-espresso.org", 
     in publications or presentations arising from this work. More details at
     http://www.quantum-espresso.org/quote

           HOST :    @host@
           ARCH :    
             CC :    cc
            CPP :    cpp
            F90 :    mpif90
            F77 :    gfortran
         DFLAGS :    -D__GFORTRAN -D__STD_F95 -D__FFTW3 -D__MPI -D__PARA
      BLAS LIBS :    -lopenblas
    LAPACK LIBS :    -lopenblas
       FFT LIBS :    -lfftw3
      MASS LIBS :    

     Parallel version (MPI), running on    28 processors
     R & G space division:  proc/nbgrp/npool/nimage =      28
     Waiting for input...
     Reading input from standard input
Warning: card &IONS ignored
Warning: card / ignored
Warning: card &CELL ignored
Warning: card / ignored

     Current dimensions of program PWSCF are:
     Max number of different atomic species (ntypx) = 10
     Max number of k-points (npk) =  40000
     Max angular momentum in pseudopotentials (lmaxx) =  3

     IMPORTANT: XC functional enforced from input :
     Exchange-correlation      = PBE ( 1  4  3  4 0 0)
     Any further DFT definition will be discarded
     Please, verify this is what you really want


     gamma-point specific algorithms are used

     Subspace diagonalization in iterative solution of the eigenvalue problem:
     a serial algorithm will be used


     Parallelization info
     --------------------
     sticks:   dense  smooth     PW     G-vecs:    dense   smooth      PW
     Min         445     445    110                37558    37558    4694
     Max         448     448    112                37564    37564    4708
     Sum       12517   12517   3125              1051747  1051747  131683
     Tot        6259    6259   1563



     bravais-lattice index     =            1
     lattice parameter (alat)  =      18.8973  a.u.
     unit-cell volume          =    6748.3346 (a.u.)^3
     number of atoms/cell      =            5
     number of atomic types    =            2
     number of electrons       =         8.00
     number of Kohn-Sham states=            4
     kinetic-energy cutoff     =     110.0000  Ry
     charge density cutoff     =     440.0000  Ry
     convergence threshold     =      1.0E-06
     mixing beta               =       0.5000
     number of iterations used =            8  plain     mixing
     Exchange-correlation      = PBE ( 1  4  3  4 0 0)

     celldm(1)=  18.897261  celldm(2)=   0.000000  celldm(3)=   0.000000
     celldm(4)=   0.000000  celldm(5)=   0.000000  celldm(6)=   0.000000

     crystal axes: (cart. coord. in units of alat)
               a(1) = (   1.000000   0.000000   0.000000 )  
               a(2) = (   0.000000   1.000000   0.000000 )  
               a(3) = (   0.000000   0.000000   1.000000 )  

     reciprocal axes: (cart. coord. in units 2 pi/alat)
               b(1) = (  1.000000  0.000000  0.000000 )  
               b(2) = (  0.000000  1.000000  0.000000 )  
               b(3) = (  0.000000  0.000000  1.000000 )  


     PseudoPot. # 1 for  H read from file:
     ../pseudo/H.tm.pbe.UPF
     MD5 check sum: 4b614d66af87240b7a5107bfa527a767
     Pseudo is Norm-conserving, Zval =  1.0
     Generated using "atomic" code by A. Dal Corso  v.5.2.0
     Using radial grid of  929 points,  0 beta functions with: 

     PseudoPot. # 2 for  C read from file:
     ../pseudo/C.tm.pbe.UPF
     MD5 check sum: a4f27fcb9b24331b00ace8e732a7e062
     Pseudo is Norm-conserving, Zval =  4.0
     Generated using "atomic" code by A. Dal Corso  v.5.2.0
     Using radial grid of 1073 points,  1 beta functions with: 
                l(1) =   1

     atomic species   valence    mass     pseudopotential
        H              1.00     1.00000      H( 1.00)
        C              4.00     1.00000      C( 1.00)

     No symmetry found



   Cartesian axes

     site n.     atom                  positions (alat units)
         1           H   tau(   1) = (   0.4923300   0.4164040   0.3524510  )
         2           H   tau(   2) = (   0.3596320   0.4917190   0.4432050  )
         3           H   tau(   3) = (   0.5192850   0.5749550   0.4401850  )
         4           H   tau(   4) = (   0.4997480   0.4239580   0.5333430  )
         5           C   tau(   5) = (   0.4664520   0.4785760   0.4449230  )

     number of k points=     1
                       cart. coord. in units 2pi/alat
        k(    1) = (   0.0000000   0.0000000   0.0000000), wk =   2.0000000

     Dense  grid:   525874 G-vectors     FFT dimensions: ( 128, 128, 128)

     Largest allocated arrays     est. size (Mb)     dimensions
        Kohn-Sham Wavefunctions         0.14 Mb     (    2354,    4)
        NL pseudopotentials             0.11 Mb     (    2354,    3)
        Each V/rho on FFT grid          1.25 Mb     (   81920)
        Each G-vector array             0.14 Mb     (   18782)
        G-vector shells                 0.02 Mb     (    2785)
     Largest temporary arrays     est. size (Mb)     dimensions
        Auxiliary wavefunctions         0.29 Mb     (    2354,   16)
        Each subspace H/S matrix        0.00 Mb     (      16,   16)
        Each <psi_i|beta_j> matrix      0.00 Mb     (       3,    4)
        Arrays for rho mixing          10.00 Mb     (   81920,    8)

     Initial potential from superposition of free atoms
     Check: negative starting charge=   -0.000386

     starting charge    7.99992, renormalised to    8.00000

     negative rho (up, down):  3.858E-04 0.000E+00
     Starting wfc are    8 randomized atomic wfcs

     total cpu time spent up to now is        2.9 secs

     per-process dynamical memory:   430.7 Mb

     Self-consistent Calculation

     iteration #  1     ecut=   110.00 Ry     beta=0.50
     Davidson diagonalization with overlap
     ethr =  1.00E-02,  avg # of iterations =  2.0

     negative rho (up, down):  1.824E-04 0.000E+00

     total cpu time spent up to now is        3.5 secs

     total energy              =     -16.01969089 Ry
     Harris-Foulkes estimate   =     -16.40217904 Ry
     estimated scf accuracy    <       0.67994366 Ry

     iteration #  2     ecut=   110.00 Ry     beta=0.50
     Davidson diagonalization with overlap
     ethr =  8.50E-03,  avg # of iterations =  2.0

     negative rho (up, down):  9.603E-05 0.000E+00

     total cpu time spent up to now is        4.1 secs

     total energy              =     -16.15090338 Ry
     Harris-Foulkes estimate   =     -16.17053911 Ry
     estimated scf accuracy    <       0.05091594 Ry

     iteration #  3     ecut=   110.00 Ry     beta=0.50
     Davidson diagonalization with overlap
     ethr =  6.36E-04,  avg # of iterations =  1.0

     negative rho (up, down):  5.325E-06 0.000E+00

     total cpu time spent up to now is        4.6 secs

     total energy              =     -16.14930231 Ry
     Harris-Foulkes estimate   =     -16.15481242 Ry
     estimated scf accuracy    <       0.01158656 Ry

     iteration #  4     ecut=   110.00 Ry     beta=0.50
     Davidson diagonalization with overlap
     ethr =  1.45E-04,  avg # of iterations =  3.0

     negative rho (up, down):  4.375E-06 0.000E+00

     total cpu time spent up to now is        5.1 secs

     total energy              =     -16.15130635 Ry
     Harris-Foulkes estimate   =     -16.15366148 Ry
     estimated scf accuracy    <       0.00560696 Ry

     iteration #  5     ecut=   110.00 Ry     beta=0.50
     Davidson diagonalization with overlap
     ethr =  7.01E-05,  avg # of iterations =  2.0

     negative rho (up, down):  2.921E-06 0.000E+00

     total cpu time spent up to now is        5.5 secs

     total energy              =     -16.15165920 Ry
     Harris-Foulkes estimate   =     -16.15179430 Ry
     estimated scf accuracy    <       0.00035648 Ry

     iteration #  6     ecut=   110.00 Ry     beta=0.50
     Davidson diagonalization with overlap
     ethr =  4.46E-06,  avg # of iterations =  3.0

     negative rho (up, down):  2.581E-07 0.000E+00

     total cpu time spent up to now is        6.1 secs

     total energy              =     -16.15178461 Ry
     Harris-Foulkes estimate   =     -16.15178327 Ry
     estimated scf accuracy    <       0.00000817 Ry

     iteration #  7     ecut=   110.00 Ry     beta=0.50
     Davidson diagonalization with overlap
     ethr =  1.02E-07,  avg # of iterations =  3.0

     total cpu time spent up to now is        6.6 secs

     total energy              =     -16.15178381 Ry
     Harris-Foulkes estimate   =     -16.15178985 Ry
     estimated scf accuracy    <       0.00001420 Ry

     iteration #  8     ecut=   110.00 Ry     beta=0.50
     Davidson diagonalization with overlap
     ethr =  1.02E-07,  avg # of iterations =  2.0

     total cpu time spent up to now is        7.2 secs

     total energy              =     -16.15178484 Ry
     Harris-Foulkes estimate   =     -16.15178511 Ry
     estimated scf accuracy    <       0.00000117 Ry

     iteration #  9     ecut=   110.00 Ry     beta=0.50
     Davidson diagonalization with overlap
     ethr =  1.47E-08,  avg # of iterations =  1.0

     total cpu time spent up to now is        7.6 secs

     End of self-consistent calculation

          k = 0.0000 0.0000 0.0000 ( 65842 PWs)   bands (ev):

   -16.7841  -9.4803  -9.2465  -8.9544

     highest occupied level (ev):    -8.9544

!    total energy              =     -16.15178458 Ry
     Harris-Foulkes estimate   =     -16.15178489 Ry
     estimated scf accuracy    <       0.00000043 Ry

     The total energy is the sum of the following terms:

     one-electron contribution =     -40.02967343 Ry
     hartree contribution      =      20.83737569 Ry
     xc contribution           =      -6.32484544 Ry
     ewald contribution        =       9.36535860 Ry

     convergence has been achieved in   9 iterations

     Forces acting on atoms (Ry/au):

     atom    1 type  1   force =    -0.00495158    0.02850849    0.03990949
     atom    2 type  1   force =    -0.02455189    0.00766355    0.00837952
     atom    3 type  1   force =    -0.00579856   -0.00371830   -0.00223282
     atom    4 type  1   force =    -0.00347596   -0.00320630    0.00603420
     atom    5 type  2   force =     0.03877798   -0.02924744   -0.05209039

     Total force =     0.091354     Total SCF correction =     0.000465


     entering subroutine stress ...

          total   stress  (Ry/bohr**3)                   (kbar)     P=   -0.70
   0.00000381  -0.00000107   0.00000063          0.56     -0.16      0.09
  -0.00000107  -0.00000719  -0.00000817         -0.16     -1.06     -1.20
   0.00000063  -0.00000817  -0.00001085          0.09     -1.20     -1.60


     init_run     :      2.46s CPU      2.48s WALL (       1 calls)
     electrons    :      4.67s CPU      4.73s WALL (       1 calls)
     forces       :      0.91s CPU      0.91s WALL (       1 calls)
     stress       :      1.12s CPU      1.12s WALL (       1 calls)

     Called by init_run:
     wfcinit      :      0.10s CPU      0.11s WALL (       1 calls)
     potinit      :      0.95s CPU      0.95s WALL (       1 calls)

     Called by electrons:
     c_bands      :      2.17s CPU      2.19s WALL (       9 calls)
     sum_band     :      0.49s CPU      0.49s WALL (       9 calls)
     v_of_rho     :      1.93s CPU      1.95s WALL (      10 calls)
     mix_rho      :      0.26s CPU      0.26s WALL (       9 calls)

     Called by c_bands:
     init_us_2    :      0.04s CPU      0.05s WALL (      19 calls)
     regterg      :      2.14s CPU      2.16s WALL (       9 calls)

     Called by sum_band:

     Called by *egterg:
     h_psi        :      2.18s CPU      2.20s WALL (      29 calls)
     g_psi        :      0.01s CPU      0.01s WALL (      19 calls)
     rdiaghg      :      0.00s CPU      0.00s WALL (      28 calls)

     Called by h_psi:
     add_vuspsi   :      0.00s CPU      0.00s WALL (      29 calls)

     General routines
     calbec       :      0.94s CPU      0.95s WALL (      34 calls)
     fft          :      1.86s CPU      1.88s WALL (     117 calls)
     fftw         :      1.27s CPU      1.29s WALL (     130 calls)

     Parallel routines
     fft_scatter  :      1.26s CPU      1.28s WALL (     247 calls)

     PWSCF        :     9.53s CPU         9.64s WALL


   This run was terminated on:  18:51:26  22Sep2019            

=------------------------------------------------------------------------------=
   JOB DONE.
=------------------------------------------------------------------------------=
