-2.283886777548979730e+00 -1.285214109986692721e+00 3.078312300501358928e-02 -1.285214109986692721e+00 -3.736479437743589926e+00 4.048242818542541893e-02 3.078312300501358928e-02 4.048242818542541893e-02 -2.772409696770880227e+00
