
     Program PWSCF v.5.4.0 starts on 22Sep2019 at 19:40:36 

     This program is part of the open-source Quantum ESPRESSO suite
     for quantum simulation of materials; please cite
         "P. Giannozzi et al., J. Phys.:Condens. Matter 21 395502 (2009);
          URL http://www.quantum-espresso.org", 
     in publications or presentations arising from this work. More details at
     http://www.quantum-espresso.org/quote

           HOST :    @host@
           ARCH :    
             CC :    cc
            CPP :    cpp
            F90 :    mpif90
            F77 :    gfortran
         DFLAGS :    -D__GFORTRAN -D__STD_F95 -D__FFTW3 -D__MPI -D__PARA
      BLAS LIBS :    -lopenblas
    LAPACK LIBS :    -lopenblas
       FFT LIBS :    -lfftw3
      MASS LIBS :    

     Parallel version (MPI), running on    28 processors
     R & G space division:  proc/nbgrp/npool/nimage =      28
     Waiting for input...
     Reading input from standard input
Warning: card &IONS ignored
Warning: card / ignored
Warning: card &CELL ignored
Warning: card / ignored

     Current dimensions of program PWSCF are:
     Max number of different atomic species (ntypx) = 10
     Max number of k-points (npk) =  40000
     Max angular momentum in pseudopotentials (lmaxx) =  3

     IMPORTANT: XC functional enforced from input :
     Exchange-correlation      = PBE ( 1  4  3  4 0 0)
     Any further DFT definition will be discarded
     Please, verify this is what you really want


     gamma-point specific algorithms are used

     Subspace diagonalization in iterative solution of the eigenvalue problem:
     a serial algorithm will be used


     Parallelization info
     --------------------
     sticks:   dense  smooth     PW     G-vecs:    dense   smooth      PW
     Min         445     445    110                37558    37558    4694
     Max         448     448    112                37564    37564    4708
     Sum       12517   12517   3125              1051747  1051747  131683
     Tot        6259    6259   1563



     bravais-lattice index     =            1
     lattice parameter (alat)  =      18.8973  a.u.
     unit-cell volume          =    6748.3346 (a.u.)^3
     number of atoms/cell      =            5
     number of atomic types    =            2
     number of electrons       =         8.00
     number of Kohn-Sham states=            4
     kinetic-energy cutoff     =     110.0000  Ry
     charge density cutoff     =     440.0000  Ry
     convergence threshold     =      1.0E-06
     mixing beta               =       0.5000
     number of iterations used =            8  plain     mixing
     Exchange-correlation      = PBE ( 1  4  3  4 0 0)

     celldm(1)=  18.897261  celldm(2)=   0.000000  celldm(3)=   0.000000
     celldm(4)=   0.000000  celldm(5)=   0.000000  celldm(6)=   0.000000

     crystal axes: (cart. coord. in units of alat)
               a(1) = (   1.000000   0.000000   0.000000 )  
               a(2) = (   0.000000   1.000000   0.000000 )  
               a(3) = (   0.000000   0.000000   1.000000 )  

     reciprocal axes: (cart. coord. in units 2 pi/alat)
               b(1) = (  1.000000  0.000000  0.000000 )  
               b(2) = (  0.000000  1.000000  0.000000 )  
               b(3) = (  0.000000  0.000000  1.000000 )  


     PseudoPot. # 1 for  H read from file:
     ../pseudo/H.tm.pbe.UPF
     MD5 check sum: 4b614d66af87240b7a5107bfa527a767
     Pseudo is Norm-conserving, Zval =  1.0
     Generated using "atomic" code by A. Dal Corso  v.5.2.0
     Using radial grid of  929 points,  0 beta functions with: 

     PseudoPot. # 2 for  C read from file:
     ../pseudo/C.tm.pbe.UPF
     MD5 check sum: a4f27fcb9b24331b00ace8e732a7e062
     Pseudo is Norm-conserving, Zval =  4.0
     Generated using "atomic" code by A. Dal Corso  v.5.2.0
     Using radial grid of 1073 points,  1 beta functions with: 
                l(1) =   1

     atomic species   valence    mass     pseudopotential
        H              1.00     1.00000      H( 1.00)
        C              4.00     1.00000      C( 1.00)

     No symmetry found



   Cartesian axes

     site n.     atom                  positions (alat units)
         1           H   tau(   1) = (   0.5414570   0.4107970   0.3567640  )
         2           H   tau(   2) = (   0.4003850   0.4848260   0.4392380  )
         3           H   tau(   3) = (   0.5591030   0.5662420   0.4393760  )
         4           H   tau(   4) = (   0.5409390   0.4182450   0.5301590  )
         5           C   tau(   5) = (   0.5092780   0.4729480   0.4421400  )

     number of k points=     1
                       cart. coord. in units 2pi/alat
        k(    1) = (   0.0000000   0.0000000   0.0000000), wk =   2.0000000

     Dense  grid:   525874 G-vectors     FFT dimensions: ( 128, 128, 128)

     Largest allocated arrays     est. size (Mb)     dimensions
        Kohn-Sham Wavefunctions         0.14 Mb     (    2354,    4)
        NL pseudopotentials             0.11 Mb     (    2354,    3)
        Each V/rho on FFT grid          1.25 Mb     (   81920)
        Each G-vector array             0.14 Mb     (   18782)
        G-vector shells                 0.02 Mb     (    2785)
     Largest temporary arrays     est. size (Mb)     dimensions
        Auxiliary wavefunctions         0.29 Mb     (    2354,   16)
        Each subspace H/S matrix        0.00 Mb     (      16,   16)
        Each <psi_i|beta_j> matrix      0.00 Mb     (       3,    4)
        Arrays for rho mixing          10.00 Mb     (   81920,    8)

     Initial potential from superposition of free atoms
     Check: negative starting charge=   -0.000388

     starting charge    7.99992, renormalised to    8.00000

     negative rho (up, down):  3.876E-04 0.000E+00
     Starting wfc are    8 randomized atomic wfcs

     total cpu time spent up to now is       15.7 secs

     per-process dynamical memory:   430.8 Mb

     Self-consistent Calculation

     iteration #  1     ecut=   110.00 Ry     beta=0.50
     Davidson diagonalization with overlap
     ethr =  1.00E-02,  avg # of iterations =  2.0

     negative rho (up, down):  1.825E-04 0.000E+00

     total cpu time spent up to now is       16.3 secs

     total energy              =     -16.01492684 Ry
     Harris-Foulkes estimate   =     -16.42057092 Ry
     estimated scf accuracy    <       0.72004223 Ry

     iteration #  2     ecut=   110.00 Ry     beta=0.50
     Davidson diagonalization with overlap
     ethr =  9.00E-03,  avg # of iterations =  2.0

     negative rho (up, down):  9.491E-05 0.000E+00

     total cpu time spent up to now is       16.8 secs

     total energy              =     -16.15201600 Ry
     Harris-Foulkes estimate   =     -16.17067801 Ry
     estimated scf accuracy    <       0.04898991 Ry

     iteration #  3     ecut=   110.00 Ry     beta=0.50
     Davidson diagonalization with overlap
     ethr =  6.12E-04,  avg # of iterations =  1.0

     negative rho (up, down):  4.590E-06 0.000E+00

     total cpu time spent up to now is       17.2 secs

     total energy              =     -16.15002791 Ry
     Harris-Foulkes estimate   =     -16.15546123 Ry
     estimated scf accuracy    <       0.01139544 Ry

     iteration #  4     ecut=   110.00 Ry     beta=0.50
     Davidson diagonalization with overlap
     ethr =  1.42E-04,  avg # of iterations =  2.0

     negative rho (up, down):  4.591E-06 0.000E+00

     total cpu time spent up to now is       17.7 secs

     total energy              =     -16.15190959 Ry
     Harris-Foulkes estimate   =     -16.15388982 Ry
     estimated scf accuracy    <       0.00464508 Ry

     iteration #  5     ecut=   110.00 Ry     beta=0.50
     Davidson diagonalization with overlap
     ethr =  5.81E-05,  avg # of iterations =  1.0

     negative rho (up, down):  2.043E-06 0.000E+00

     total cpu time spent up to now is       18.1 secs

     total energy              =     -16.15205352 Ry
     Harris-Foulkes estimate   =     -16.15227778 Ry
     estimated scf accuracy    <       0.00040882 Ry

     iteration #  6     ecut=   110.00 Ry     beta=0.50
     Davidson diagonalization with overlap
     ethr =  5.11E-06,  avg # of iterations =  3.0

     negative rho (up, down):  1.177E-07 0.000E+00

     total cpu time spent up to now is       18.7 secs

     total energy              =     -16.15226951 Ry
     Harris-Foulkes estimate   =     -16.15231848 Ry
     estimated scf accuracy    <       0.00010394 Ry

     iteration #  7     ecut=   110.00 Ry     beta=0.50
     Davidson diagonalization with overlap
     ethr =  1.30E-06,  avg # of iterations =  2.0

     total cpu time spent up to now is       19.3 secs

     End of self-consistent calculation

          k = 0.0000 0.0000 0.0000 ( 65842 PWs)   bands (ev):

   -16.9118  -9.4525  -9.3770  -9.0373

     highest occupied level (ev):    -9.0373

!    total energy              =     -16.15228714 Ry
     Harris-Foulkes estimate   =     -16.15228755 Ry
     estimated scf accuracy    <       0.00000070 Ry

     The total energy is the sum of the following terms:

     one-electron contribution =     -40.55099461 Ry
     hartree contribution      =      21.10490629 Ry
     xc contribution           =      -6.37202498 Ry
     ewald contribution        =       9.66582616 Ry

     convergence has been achieved in   7 iterations

     Forces acting on atoms (Ry/au):

     atom    1 type  1   force =    -0.00511570    0.00985739   -0.00063933
     atom    2 type  1   force =     0.00197952    0.00110416    0.00327520
     atom    3 type  1   force =     0.02070954    0.04777984   -0.00336618
     atom    4 type  1   force =    -0.00300567   -0.00441693    0.02065817
     atom    5 type  2   force =    -0.01456768   -0.05432446   -0.01992787

     Total force =     0.082937     Total SCF correction =     0.000461


     entering subroutine stress ...

          total   stress  (Ry/bohr**3)                   (kbar)     P=    0.61
  -0.00000036   0.00000682   0.00000031         -0.05      1.00      0.05
   0.00000682   0.00000956  -0.00000383          1.00      1.41     -0.56
   0.00000031  -0.00000383   0.00000332          0.05     -0.56      0.49


     init_run     :      2.50s CPU      2.50s WALL (       1 calls)
     electrons    :      3.53s CPU      3.59s WALL (       1 calls)
     forces       :      0.88s CPU      0.89s WALL (       1 calls)
     stress       :      1.10s CPU      1.10s WALL (       1 calls)

     Called by init_run:
     wfcinit      :      0.20s CPU      0.20s WALL (       1 calls)
     potinit      :      0.94s CPU      0.94s WALL (       1 calls)

     Called by electrons:
     c_bands      :      1.62s CPU      1.63s WALL (       7 calls)
     sum_band     :      0.39s CPU      0.40s WALL (       7 calls)
     v_of_rho     :      1.53s CPU      1.57s WALL (       8 calls)
     mix_rho      :      0.16s CPU      0.17s WALL (       7 calls)

     Called by c_bands:
     init_us_2    :      0.04s CPU      0.04s WALL (      15 calls)
     regterg      :      1.59s CPU      1.61s WALL (       7 calls)

     Called by sum_band:

     Called by *egterg:
     h_psi        :      1.74s CPU      1.75s WALL (      21 calls)
     g_psi        :      0.01s CPU      0.01s WALL (      13 calls)
     rdiaghg      :      0.00s CPU      0.00s WALL (      20 calls)

     Called by h_psi:
     add_vuspsi   :      0.00s CPU      0.00s WALL (      21 calls)

     General routines
     calbec       :      0.57s CPU      0.57s WALL (      26 calls)
     fft          :      1.48s CPU      1.52s WALL (      95 calls)
     fftw         :      1.19s CPU      1.20s WALL (     102 calls)

     Parallel routines
     fft_scatter  :      1.18s CPU      1.21s WALL (     197 calls)

     PWSCF        :    21.22s CPU        21.36s WALL


   This run was terminated on:  19:40:57  22Sep2019            

=------------------------------------------------------------------------------=
   JOB DONE.
=------------------------------------------------------------------------------=
