
     Program PWSCF v.5.4.0 starts on 22Sep2019 at 18:57:55 

     This program is part of the open-source Quantum ESPRESSO suite
     for quantum simulation of materials; please cite
         "P. Giannozzi et al., J. Phys.:Condens. Matter 21 395502 (2009);
          URL http://www.quantum-espresso.org", 
     in publications or presentations arising from this work. More details at
     http://www.quantum-espresso.org/quote

           HOST :    @host@
           ARCH :    
             CC :    cc
            CPP :    cpp
            F90 :    mpif90
            F77 :    gfortran
         DFLAGS :    -D__GFORTRAN -D__STD_F95 -D__FFTW3 -D__MPI -D__PARA
      BLAS LIBS :    -lopenblas
    LAPACK LIBS :    -lopenblas
       FFT LIBS :    -lfftw3
      MASS LIBS :    

     Parallel version (MPI), running on    28 processors
     R & G space division:  proc/nbgrp/npool/nimage =      28
     Waiting for input...
     Reading input from standard input
Warning: card &IONS ignored
Warning: card / ignored
Warning: card &CELL ignored
Warning: card / ignored

     Current dimensions of program PWSCF are:
     Max number of different atomic species (ntypx) = 10
     Max number of k-points (npk) =  40000
     Max angular momentum in pseudopotentials (lmaxx) =  3

     IMPORTANT: XC functional enforced from input :
     Exchange-correlation      = PBE ( 1  4  3  4 0 0)
     Any further DFT definition will be discarded
     Please, verify this is what you really want


     gamma-point specific algorithms are used

     Subspace diagonalization in iterative solution of the eigenvalue problem:
     a serial algorithm will be used


     Parallelization info
     --------------------
     sticks:   dense  smooth     PW     G-vecs:    dense   smooth      PW
     Min         445     445    110                37558    37558    4694
     Max         448     448    112                37564    37564    4708
     Sum       12517   12517   3125              1051747  1051747  131683
     Tot        6259    6259   1563



     bravais-lattice index     =            1
     lattice parameter (alat)  =      18.8973  a.u.
     unit-cell volume          =    6748.3346 (a.u.)^3
     number of atoms/cell      =            5
     number of atomic types    =            2
     number of electrons       =         8.00
     number of Kohn-Sham states=            4
     kinetic-energy cutoff     =     110.0000  Ry
     charge density cutoff     =     440.0000  Ry
     convergence threshold     =      1.0E-06
     mixing beta               =       0.5000
     number of iterations used =            8  plain     mixing
     Exchange-correlation      = PBE ( 1  4  3  4 0 0)

     celldm(1)=  18.897261  celldm(2)=   0.000000  celldm(3)=   0.000000
     celldm(4)=   0.000000  celldm(5)=   0.000000  celldm(6)=   0.000000

     crystal axes: (cart. coord. in units of alat)
               a(1) = (   1.000000   0.000000   0.000000 )  
               a(2) = (   0.000000   1.000000   0.000000 )  
               a(3) = (   0.000000   0.000000   1.000000 )  

     reciprocal axes: (cart. coord. in units 2 pi/alat)
               b(1) = (  1.000000  0.000000  0.000000 )  
               b(2) = (  0.000000  1.000000  0.000000 )  
               b(3) = (  0.000000  0.000000  1.000000 )  


     PseudoPot. # 1 for  H read from file:
     ../pseudo/H.tm.pbe.UPF
     MD5 check sum: 4b614d66af87240b7a5107bfa527a767
     Pseudo is Norm-conserving, Zval =  1.0
     Generated using "atomic" code by A. Dal Corso  v.5.2.0
     Using radial grid of  929 points,  0 beta functions with: 

     PseudoPot. # 2 for  C read from file:
     ../pseudo/C.tm.pbe.UPF
     MD5 check sum: a4f27fcb9b24331b00ace8e732a7e062
     Pseudo is Norm-conserving, Zval =  4.0
     Generated using "atomic" code by A. Dal Corso  v.5.2.0
     Using radial grid of 1073 points,  1 beta functions with: 
                l(1) =   1

     atomic species   valence    mass     pseudopotential
        H              1.00     1.00000      H( 1.00)
        C              4.00     1.00000      C( 1.00)

     No symmetry found



   Cartesian axes

     site n.     atom                  positions (alat units)
         1           H   tau(   1) = (   0.5451770   0.3979240   0.3549240  )
         2           H   tau(   2) = (   0.4068880   0.4733990   0.4394980  )
         3           H   tau(   3) = (   0.5678310   0.5574470   0.4442710  )
         4           H   tau(   4) = (   0.5514650   0.3985380   0.5321140  )
         5           C   tau(   5) = (   0.5189820   0.4555260   0.4439150  )

     number of k points=     1
                       cart. coord. in units 2pi/alat
        k(    1) = (   0.0000000   0.0000000   0.0000000), wk =   2.0000000

     Dense  grid:   525874 G-vectors     FFT dimensions: ( 128, 128, 128)

     Largest allocated arrays     est. size (Mb)     dimensions
        Kohn-Sham Wavefunctions         0.14 Mb     (    2354,    4)
        NL pseudopotentials             0.11 Mb     (    2354,    3)
        Each V/rho on FFT grid          1.25 Mb     (   81920)
        Each G-vector array             0.14 Mb     (   18782)
        G-vector shells                 0.02 Mb     (    2785)
     Largest temporary arrays     est. size (Mb)     dimensions
        Auxiliary wavefunctions         0.29 Mb     (    2354,   16)
        Each subspace H/S matrix        0.00 Mb     (      16,   16)
        Each <psi_i|beta_j> matrix      0.00 Mb     (       3,    4)
        Arrays for rho mixing          10.00 Mb     (   81920,    8)

     Initial potential from superposition of free atoms
     Check: negative starting charge=   -0.000378

     starting charge    7.99992, renormalised to    8.00000

     negative rho (up, down):  3.781E-04 0.000E+00
     Starting wfc are    8 randomized atomic wfcs

     total cpu time spent up to now is        3.0 secs

     per-process dynamical memory:   430.8 Mb

     Self-consistent Calculation

     iteration #  1     ecut=   110.00 Ry     beta=0.50
     Davidson diagonalization with overlap
     ethr =  1.00E-02,  avg # of iterations =  2.0

     negative rho (up, down):  1.790E-04 0.000E+00

     total cpu time spent up to now is        3.4 secs

     total energy              =     -16.02239720 Ry
     Harris-Foulkes estimate   =     -16.38970132 Ry
     estimated scf accuracy    <       0.65365094 Ry

     iteration #  2     ecut=   110.00 Ry     beta=0.50
     Davidson diagonalization with overlap
     ethr =  8.17E-03,  avg # of iterations =  2.0

     negative rho (up, down):  9.483E-05 0.000E+00

     total cpu time spent up to now is        3.9 secs

     total energy              =     -16.14949650 Ry
     Harris-Foulkes estimate   =     -16.16958179 Ry
     estimated scf accuracy    <       0.05171769 Ry

     iteration #  3     ecut=   110.00 Ry     beta=0.50
     Davidson diagonalization with overlap
     ethr =  6.46E-04,  avg # of iterations =  1.0

     negative rho (up, down):  5.888E-06 0.000E+00

     total cpu time spent up to now is        4.3 secs

     total energy              =     -16.14813888 Ry
     Harris-Foulkes estimate   =     -16.15365856 Ry
     estimated scf accuracy    <       0.01162370 Ry

     iteration #  4     ecut=   110.00 Ry     beta=0.50
     Davidson diagonalization with overlap
     ethr =  1.45E-04,  avg # of iterations =  3.0

     negative rho (up, down):  4.329E-06 0.000E+00

     total cpu time spent up to now is        4.9 secs

     total energy              =     -16.15020490 Ry
     Harris-Foulkes estimate   =     -16.15276067 Ry
     estimated scf accuracy    <       0.00609599 Ry

     iteration #  5     ecut=   110.00 Ry     beta=0.50
     Davidson diagonalization with overlap
     ethr =  7.62E-05,  avg # of iterations =  2.0

     negative rho (up, down):  2.436E-06 0.000E+00

     total cpu time spent up to now is        5.3 secs

     total energy              =     -16.15057522 Ry
     Harris-Foulkes estimate   =     -16.15073630 Ry
     estimated scf accuracy    <       0.00039116 Ry

     iteration #  6     ecut=   110.00 Ry     beta=0.50
     Davidson diagonalization with overlap
     ethr =  4.89E-06,  avg # of iterations =  3.0

     negative rho (up, down):  1.388E-07 0.000E+00

     total cpu time spent up to now is        6.0 secs

     total energy              =     -16.15073401 Ry
     Harris-Foulkes estimate   =     -16.15073201 Ry
     estimated scf accuracy    <       0.00000823 Ry

     iteration #  7     ecut=   110.00 Ry     beta=0.50
     Davidson diagonalization with overlap
     ethr =  1.03E-07,  avg # of iterations =  1.0

     total cpu time spent up to now is        6.5 secs

     total energy              =     -16.15073134 Ry
     Harris-Foulkes estimate   =     -16.15073436 Ry
     estimated scf accuracy    <       0.00000870 Ry

     iteration #  8     ecut=   110.00 Ry     beta=0.50
     Davidson diagonalization with overlap
     ethr =  1.03E-07,  avg # of iterations =  1.0

     total cpu time spent up to now is        6.8 secs

     total energy              =     -16.15073093 Ry
     Harris-Foulkes estimate   =     -16.15073179 Ry
     estimated scf accuracy    <       0.00000211 Ry

     iteration #  9     ecut=   110.00 Ry     beta=0.50
     Davidson diagonalization with overlap
     ethr =  2.64E-08,  avg # of iterations =  2.0

     total cpu time spent up to now is        7.3 secs

     End of self-consistent calculation

          k = 0.0000 0.0000 0.0000 ( 65842 PWs)   bands (ev):

   -16.7008  -9.3832  -9.2986  -8.8621

     highest occupied level (ev):    -8.8621

!    total energy              =     -16.15073125 Ry
     Harris-Foulkes estimate   =     -16.15073130 Ry
     estimated scf accuracy    <       0.00000010 Ry

     The total energy is the sum of the following terms:

     one-electron contribution =     -39.69573528 Ry
     hartree contribution      =      20.66783831 Ry
     xc contribution           =      -6.29428788 Ry
     ewald contribution        =       9.17145360 Ry

     convergence has been achieved in   9 iterations

     Forces acting on atoms (Ry/au):

     atom    1 type  1   force =     0.00806976    0.00390424   -0.00767670
     atom    2 type  1   force =     0.04160536   -0.01296065    0.01371080
     atom    3 type  1   force =    -0.01031390   -0.03807167   -0.00426364
     atom    4 type  1   force =    -0.01146026    0.00571076    0.00092863
     atom    5 type  2   force =    -0.02790096    0.04141733   -0.00269909

     Total force =     0.080413     Total SCF correction =     0.000130


     entering subroutine stress ...

          total   stress  (Ry/bohr**3)                   (kbar)     P=   -1.54
  -0.00001676  -0.00000034  -0.00000536         -2.47     -0.05     -0.79
  -0.00000034  -0.00001487   0.00000056         -0.05     -2.19      0.08
  -0.00000536   0.00000056   0.00000017         -0.79      0.08      0.02


     init_run     :      2.60s CPU      2.61s WALL (       1 calls)
     electrons    :      4.29s CPU      4.35s WALL (       1 calls)
     forces       :      1.05s CPU      1.05s WALL (       1 calls)
     stress       :      1.11s CPU      1.12s WALL (       1 calls)

     Called by init_run:
     wfcinit      :      0.20s CPU      0.20s WALL (       1 calls)
     potinit      :      1.06s CPU      1.06s WALL (       1 calls)

     Called by electrons:
     c_bands      :      1.70s CPU      1.73s WALL (       9 calls)
     sum_band     :      0.57s CPU      0.58s WALL (       9 calls)
     v_of_rho     :      2.06s CPU      2.08s WALL (      10 calls)
     mix_rho      :      0.24s CPU      0.25s WALL (       9 calls)

     Called by c_bands:
     init_us_2    :      0.04s CPU      0.04s WALL (      19 calls)
     regterg      :      1.67s CPU      1.69s WALL (       9 calls)

     Called by sum_band:

     Called by *egterg:
     h_psi        :      1.80s CPU      1.83s WALL (      27 calls)
     g_psi        :      0.01s CPU      0.01s WALL (      17 calls)
     rdiaghg      :      0.00s CPU      0.00s WALL (      26 calls)

     Called by h_psi:
     add_vuspsi   :      0.00s CPU      0.00s WALL (      27 calls)

     General routines
     calbec       :      0.67s CPU      0.67s WALL (      32 calls)
     fft          :      1.94s CPU      1.98s WALL (     117 calls)
     fftw         :      1.16s CPU      1.19s WALL (     124 calls)

     Parallel routines
     fft_scatter  :      1.28s CPU      1.33s WALL (     241 calls)

     PWSCF        :     9.41s CPU         9.53s WALL


   This run was terminated on:  18:58: 5  22Sep2019            

=------------------------------------------------------------------------------=
   JOB DONE.
=------------------------------------------------------------------------------=
