-4.555009999999999892e-01 2.494788999999999923e+00 -3.173700000000000132e-02 -9.696939999999999449e-01 -2.316838000000000175e+00 1.695599999999999885e-02 -7.986119999999999886e-01 -2.404609999999999914e+00 3.981500000000000317e-02 1.111703000000000108e+00 -9.831099999999999561e-02 -9.818000000000000338e-03 5.611059999999999937e-01 1.163189999999999946e+00 -1.683408999999999933e+00 5.509969999999999590e-01 1.161780000000000035e+00 1.668191999999999897e+00
