    6    6    1    1
  0.5000000E+03  0.3000000E-08  0.1000000E-08  0.1000000E-08  0.5000000E-15
  1.000000000000000E-004
  CAR 
 unknown system                          
     16      2     12
 
  0.0000000E+00  0.2500000E+00  0.2500000E+00  0.5000000E+00
    1      -25.245215   1.000000
    2      -24.175547   1.000000
    3      -13.022383   1.000000
    4      -11.971780   1.000000
    5       -9.850981   1.000000
    6       -8.755415   1.000000
    7       -7.635713   1.000000
    8       -6.557132   1.000000
    9       -1.475983   0.000000
   10       -0.371328   0.000000
   11        0.058807   0.000000
   12        0.225462   0.000000
 
  0.0000000E+00 -0.2500000E+00  0.2500000E+00  0.5000000E+00
    1      -25.245215   1.000000
    2      -24.175547   1.000000
    3      -13.022383   1.000000
    4      -11.971780   1.000000
    5       -9.850981   1.000000
    6       -8.755415   1.000000
    7       -7.635713   1.000000
    8       -6.557132   1.000000
    9       -1.475981   0.000000
   10       -0.371399   0.000000
   11        0.059488   0.000000
   12        0.225044   0.000000
