<?xml version="1.0" encoding="ISO-8859-1"?>
<modeling>
 <generator>
  <i name="program" type="string">vasp </i>
  <i name="version" type="string">5.4.4.18Apr17-6-g9f103f2a35  </i>
  <i name="subversion" type="string">(build Nov 25 2019 16:34:31) complex            parallel </i>
  <i name="platform" type="string">LinuxIFC </i>
  <i name="date" type="string">2021 04 06 </i>
  <i name="time" type="string">12:18:02 </i>
 </generator>
 <incar>
  <i type="string" name="PREC">a</i>
  <i type="string" name="ALGO">fast</i>
  <i name="AMIN">      0.00500000</i>
  <i type="int" name="NELM">   300</i>
  <i type="int" name="NELMIN">     4</i>
  <i type="int" name="IBRION">    -1</i>
  <i name="EDIFF">      0.00000001</i>
  <i type="int" name="NSW">     0</i>
  <i type="int" name="ISIF">     2</i>
  <i name="ENCUT">   1500.00000000</i>
  <i type="logical" name="LREAL"> F  </i>
  <i type="int" name="ISMEAR">     0</i>
  <i name="SIGMA">      0.05000000</i>
  <i name="KSPACING">      0.50000000</i>
  <i type="logical" name="KGAMMA"> F  </i>
  <i name="PSTRESS">      0.00000000</i>
  <i type="logical" name="LWAVE"> F  </i>
  <i type="logical" name="LCHARG"> F  </i>
  <v type="int" name="KPOINT_BSE">    -1     0     0     0</v>
  <i type="int" name="NELM">   300</i>
 </incar>
 <structure name="primitive_cell" >
  <crystal>
   <varray name="basis" >
    <v>      30.00000000       0.00000000       0.00000000 </v>
    <v>       0.00000000      10.00000000       0.00000000 </v>
    <v>       0.00000000       0.00000000      10.00000000 </v>
   </varray>
   <i name="volume">   3000.00000000 </i>
   <varray name="rec_basis" >
    <v>       0.03333333       0.00000000       0.00000000 </v>
    <v>       0.00000000       0.10000000       0.00000000 </v>
    <v>       0.00000000       0.00000000       0.10000000 </v>
   </varray>
  </crystal>
  <varray name="positions" >
   <v>       0.06786896       0.15710957       0.17600000 </v>
   <v>       0.03447255       0.16672783       0.17649328 </v>
   <v>       0.07854413       0.25541218       0.17439231 </v>
   <v>      -0.04486896       0.15710957       0.17600000 </v>
   <v>      -0.05375150       0.09907990       0.09607226 </v>
   <v>      -0.05387697       0.09941802       0.25610440 </v>
  </varray>
 </structure>
 <varray name="primitive_index" >
  <v type="int" >        1 </v>
  <v type="int" >        4 </v>
  <v type="int" >        3 </v>
  <v type="int" >        2 </v>
  <v type="int" >        6 </v>
  <v type="int" >        5 </v>
 </varray>
 <kpoints>
  <generation param="Monkhorst-Pack">
   <v type="int" name="divisions">       1        2        2 </v>
   <v name="usershift">      0.00000000       0.00000000       0.00000000 </v>
   <v name="genvec1">      1.00000000       0.00000000       0.00000000 </v>
   <v name="genvec2">      0.00000000       0.50000000       0.00000000 </v>
   <v name="genvec3">      0.00000000       0.00000000       0.50000000 </v>
   <v name="shift">      0.00000000       0.50000000       0.50000000 </v>
  </generation>
  <varray name="kpointlist" >
   <v>       0.00000000       0.25000000       0.25000000 </v>
   <v>       0.00000000      -0.25000000       0.25000000 </v>
  </varray>
  <varray name="weights" >
   <v>       0.50000000 </v>
   <v>       0.50000000 </v>
  </varray>
 </kpoints>
 <parameters>
  <separator name="general" >
   <i type="string" name="SYSTEM">unknown system</i>
   <i type="logical" name="LCOMPAT"> F  </i>
  </separator>
  <separator name="electronic" >
   <i type="string" name="PREC">a</i>
   <i name="ENMAX">   1500.00000000</i>
   <i name="ENAUG">   1000.00000000</i>
   <i name="EDIFF">      0.00000001</i>
   <i type="int" name="IALGO">    68</i>
   <i type="int" name="IWAVPR">    10</i>
   <i type="int" name="NBANDS">    12</i>
   <i name="NELECT">     16.00000000</i>
   <i type="int" name="TURBO">     0</i>
   <i type="int" name="IRESTART">     0</i>
   <i type="int" name="NREBOOT">     0</i>
   <i type="int" name="NMIN">     0</i>
   <i name="EREF">      0.00000000</i>
   <separator name="electronic smearing" >
    <i type="int" name="ISMEAR">     0</i>
    <i name="SIGMA">      0.05000000</i>
    <i name="KSPACING">      0.50000000</i>
    <i type="logical" name="KGAMMA"> F  </i>
   </separator>
   <separator name="electronic projectors" >
    <i type="logical" name="LREAL"> F  </i>
    <v name="ROPT">      0.00000000      0.00000000</v>
    <i type="int" name="LMAXPAW">  -100</i>
    <i type="int" name="LMAXMIX">     2</i>
    <i type="logical" name="NLSPLINE"> F  </i>
   </separator>
   <separator name="electronic startup" >
    <i type="int" name="ISTART">     0</i>
    <i type="int" name="ICHARG">     2</i>
    <i type="int" name="INIWAV">     1</i>
   </separator>
   <separator name="electronic spin" >
    <i type="int" name="ISPIN">     1</i>
    <i type="logical" name="LNONCOLLINEAR"> F  </i>
    <v name="MAGMOM">      1.00000000      1.00000000      1.00000000      1.00000000      1.00000000      1.00000000</v>
    <i name="NUPDOWN">     -1.00000000</i>
    <i type="logical" name="LSORBIT"> F  </i>
    <v name="SAXIS">      0.00000000      0.00000000      1.00000000</v>
    <i type="logical" name="LSPIRAL"> F  </i>
    <v name="QSPIRAL">      0.00000000      0.00000000      0.00000000</v>
    <i type="logical" name="LZEROZ"> F  </i>
   </separator>
   <separator name="electronic exchange-correlation" >
    <i type="logical" name="LASPH"> F  </i>
    <i type="logical" name="LMETAGGA"> F  </i>
   </separator>
   <separator name="electronic convergence" >
    <i type="int" name="NELM">   300</i>
    <i type="int" name="NELMDL">     0</i>
    <i type="int" name="NELMIN">     4</i>
    <i name="ENINI">   1500.00000000</i>
    <separator name="electronic convergence detail" >
     <i type="logical" name="LDIAG"> T  </i>
     <i type="logical" name="LSUBROT"> F  </i>
     <i name="WEIMIN">      0.00000000</i>
     <i name="EBREAK">      0.00000000</i>
     <i name="DEPER">      0.30000000</i>
     <i type="int" name="NRMM">     4</i>
     <i name="TIME">      0.40000000</i>
    </separator>
   </separator>
   <separator name="electronic mixer" >
    <i name="AMIX">      0.40000000</i>
    <i name="BMIX">      1.00000000</i>
    <i name="AMIN">      0.00500000</i>
    <i name="AMIX_MAG">      1.60000000</i>
    <i name="BMIX_MAG">      1.00000000</i>
    <separator name="electronic mixer details" >
     <i type="int" name="IMIX">     4</i>
     <i type="logical" name="MIXFIRST"> F  </i>
     <i type="int" name="MAXMIX">   -45</i>
     <i name="WC">    100.00000000</i>
     <i type="int" name="INIMIX">     1</i>
     <i type="int" name="MIXPRE">     1</i>
     <i type="int" name="MREMOVE">     5</i>
    </separator>
   </separator>
   <separator name="electronic dipolcorrection" >
    <i type="logical" name="LDIPOL"> F  </i>
    <i type="logical" name="LMONO"> F  </i>
    <i type="int" name="IDIPOL">     0</i>
    <i name="EPSILON">      1.00000000</i>
    <v name="DIPOL">   -100.00000000   -100.00000000   -100.00000000</v>
    <i name="EFIELD">      0.00000000</i>
   </separator>
  </separator>
  <separator name="grids" >
   <i type="int" name="NGX">   384</i>
   <i type="int" name="NGY">   126</i>
   <i type="int" name="NGZ">   126</i>
   <i type="int" name="NGXF">   768</i>
   <i type="int" name="NGYF">   252</i>
   <i type="int" name="NGZF">   252</i>
   <i type="logical" name="ADDGRID"> F  </i>
  </separator>
  <separator name="ionic" >
   <i type="int" name="NSW">     0</i>
   <i type="int" name="IBRION">    -1</i>
   <i type="int" name="MDALGO">     0</i>
   <i type="int" name="ISIF">     2</i>
   <i name="PSTRESS">      0.00000000</i>
   <i name="EDIFFG">      0.00000010</i>
   <i type="int" name="NFREE">     0</i>
   <i name="POTIM">      0.50000000</i>
   <i name="SMASS">     -3.00000000</i>
   <i name="SCALEE">      1.00000000</i>
  </separator>
  <separator name="ionic md" >
   <i name="TEBEG">      0.00010000</i>
   <i name="TEEND">      0.00010000</i>
   <i type="int" name="NBLOCK">     1</i>
   <i type="int" name="KBLOCK">     1</i>
   <i type="int" name="NPACO">   256</i>
   <i name="APACO">     16.00000000</i>
  </separator>
  <separator name="symmetry" >
   <i type="int" name="ISYM">     2</i>
   <i name="SYMPREC">      0.00001000</i>
  </separator>
  <separator name="dos" >
   <i type="int" name="LORBIT">     0</i>
   <v name="RWIGS">     -1.00000000     -1.00000000</v>
   <i type="int" name="NEDOS">   301</i>
   <i name="EMIN">     10.00000000</i>
   <i name="EMAX">    -10.00000000</i>
   <i name="EFERMI">      0.00000000</i>
  </separator>
  <separator name="writing" >
   <i type="int" name="NWRITE">     2</i>
   <i type="logical" name="LWAVE"> F  </i>
   <i type="logical" name="LDOWNSAMPLE"> F  </i>
   <i type="logical" name="LCHARG"> F  </i>
   <i type="logical" name="LPARD"> F  </i>
   <i type="logical" name="LVTOT"> F  </i>
   <i type="logical" name="LVHAR"> F  </i>
   <i type="logical" name="LELF"> F  </i>
   <i type="logical" name="LOPTICS"> F  </i>
   <v name="STM">      0.00000000      0.00000000      0.00000000      0.00000000      0.00000000      0.00000000      0.00000000</v>
  </separator>
  <separator name="performance" >
   <i type="int" name="NPAR">     2</i>
   <i type="int" name="NSIM">     4</i>
   <i type="int" name="NBLK">    -1</i>
   <i type="logical" name="LPLANE"> T  </i>
   <i type="logical" name="LSCALAPACK"> T  </i>
   <i type="logical" name="LSCAAWARE"> F  </i>
   <i type="logical" name="LSCALU"> F  </i>
   <i type="logical" name="LASYNC"> F  </i>
   <i type="logical" name="LORBITALREAL"> F  </i>
  </separator>
  <separator name="miscellaneous" >
   <i type="int" name="IDIOT">     3</i>
   <i type="int" name="ISPECIAL">     0</i>
   <i type="logical" name="LMUSIC"> F  </i>
   <v name="POMASS">     16.00000000      1.00000000</v>
   <v name="DARWINR">      0.00000000      0.00000000</v>
   <v name="DARWINV">      1.00000000      1.00000000</v>
   <i type="logical" name="LCORR"> T  </i>
  </separator>
  <i type="logical" name="GGA_COMPAT"> T  </i>
  <i type="logical" name="LBERRY"> F  </i>
  <i type="int" name="ICORELEVEL">     0</i>
  <i type="logical" name="LDAU"> F  </i>
  <i type="int" name="I_CONSTRAINED_M">     0</i>
  <separator name="electronic exchange-correlation" >
   <i type="string" name="GGA">--</i>
   <i type="int" name="VOSKOWN">     0</i>
   <i type="logical" name="LHFCALC"> F  </i>
   <i type="string" name="PRECFOCK"></i>
   <i type="logical" name="LSYMGRAD"> F  </i>
   <i type="logical" name="LHFONE"> F  </i>
   <i type="logical" name="LRHFCALC"> F  </i>
   <i type="logical" name="LTHOMAS"> F  </i>
   <i type="logical" name="LMODELHF"> F  </i>
   <i name="ENCUT4O">     -1.00000000</i>
   <i type="int" name="EXXOEP">     0</i>
   <i type="int" name="FOURORBIT">     0</i>
   <i name="AEXX">      0.00000000</i>
   <i name="HFALPHA">      0.00000000</i>
   <i name="MCALPHA">      0.00000000</i>
   <i name="ALDAX">      1.00000000</i>
   <i name="AGGAX">      1.00000000</i>
   <i name="ALDAC">      1.00000000</i>
   <i name="AGGAC">      1.00000000</i>
   <i type="int" name="NKREDX">     1</i>
   <i type="int" name="NKREDY">     1</i>
   <i type="int" name="NKREDZ">     1</i>
   <i type="logical" name="SHIFTRED"> F  </i>
   <i type="logical" name="ODDONLY"> F  </i>
   <i type="logical" name="EVENONLY"> F  </i>
   <i type="int" name="LMAXFOCK">     0</i>
   <i type="int" name="NMAXFOCKAE">     0</i>
   <i type="logical" name="LFOCKAEDFT"> F  </i>
   <i name="HFSCREEN">      0.00000000</i>
   <i name="HFSCREENC">      0.00000000</i>
   <i type="int" name="NBANDSGWLOW">     0</i>
  </separator>
  <separator name="vdW DFT" >
   <i type="logical" name="LUSE_VDW"> F  </i>
   <i name="Zab_VDW">     -0.84910000</i>
   <i name="PARAM1">      0.12340000</i>
   <i name="PARAM2">      1.00000000</i>
   <i name="PARAM3">      0.00000000</i>
  </separator>
  <separator name="model GW" >
   <i type="int" name="MODEL_GW">     0</i>
   <i name="MODEL_EPS0">    300.00000000</i>
   <i name="MODEL_ALPHA">      1.00000000</i>
  </separator>
  <separator name="linear response parameters" >
   <i type="logical" name="LEPSILON"> F  </i>
   <i type="logical" name="LRPA"> F  </i>
   <i type="logical" name="LNABLA"> F  </i>
   <i type="logical" name="LVEL"> F  </i>
   <i type="int" name="KINTER">     0</i>
   <i name="CSHIFT">      0.10000000</i>
   <i name="OMEGAMAX">     -1.00000000</i>
   <i name="DEG_THRESHOLD">      0.00200000</i>
   <i name="RTIME">     -0.10000000</i>
   <i name="WPLASMAI">      0.00000000</i>
   <v name="DFIELD">      0.00000000      0.00000000      0.00000000</v>
   <v name="WPLASMA">      0.00000000      0.00000000      0.00000000      0.00000000      0.00000000      0.00000000      0.00000000      0.00000000      0.00000000</v>
  </separator>
  <separator name="orbital magnetization" >
   <i type="logical" name="NUCIND"> F  </i>
   <v name="MAGPOS">      0.00000000      0.00000000      0.00000000</v>
   <i type="logical" name="LNICSALL"> T  </i>
   <i type="logical" name="ORBITALMAG"> F  </i>
   <i type="logical" name="LMAGBLOCH"> F  </i>
   <i type="logical" name="LCHIMAG"> F  </i>
   <i type="logical" name="LGAUGE"> T  </i>
   <i type="int" name="MAGATOM">     0</i>
   <v name="MAGDIPOL">      0.00000000      0.00000000      0.00000000</v>
   <v name="AVECCONST">      0.00000000      0.00000000      0.00000000</v>
  </separator>
  <separator name="response functions" >
   <i type="logical" name="LADDER"> F  </i>
   <i type="logical" name="LRPAFORCE"> F  </i>
   <i type="logical" name="LFXC"> F  </i>
   <i type="logical" name="LHARTREE"> T  </i>
   <i type="int" name="IBSE">     0</i>
   <v type="int" name="KPOINT">    -1     0     0     0</v>
   <i type="logical" name="LTCTE"> F  </i>
   <i type="logical" name="LTETE"> F  </i>
   <i type="logical" name="LTRIPLET"> F  </i>
   <i type="logical" name="LFXCEPS"> F  </i>
   <i type="logical" name="LFXHEG"> F  </i>
   <i type="int" name="NATURALO">     2</i>
   <i type="logical" name="L2ORDER"> F  </i>
   <i type="logical" name="LMP2LT"> F  </i>
   <i type="logical" name="LUSEW"> F  </i>
   <i name="ENCUTGW">     -2.00000000</i>
   <i name="ENCUTGWSOFT">     -2.00000000</i>
   <i name="ENCUTLF">     -1.00000000</i>
   <i type="int" name="LMAXMP2">    -1</i>
   <i name="SCISSOR">      0.00000000</i>
   <i type="int" name="NOMEGA">     0</i>
   <i type="int" name="NOMEGAR">     0</i>
   <i type="int" name="NBANDSGW">    -1</i>
   <i type="int" name="NBANDSO">    -1</i>
   <i type="int" name="NBANDSV">    -1</i>
   <i type="int" name="NELM">   300</i>
   <i type="int" name="NELMHF">     1</i>
   <i type="int" name="DIM">     3</i>
   <i type="int" name="ANTIRES">     0</i>
   <i name="OMEGAMAX">    -30.00000000</i>
   <i name="OMEGAMIN">    -30.00000000</i>
   <i name="OMEGATL">   -200.00000000</i>
   <i type="int" name="OMEGAGRID">   140</i>
   <i name="CSHIFT">     -0.10000000</i>
   <i type="logical" name="SELFENERGY"> F  </i>
   <i type="logical" name="LSPECTRAL"> F  </i>
   <i type="logical" name="LSPECTRALGW"> F  </i>
   <i type="logical" name="LSINGLES"> F  </i>
   <i type="logical" name="LFERMIGW"> F  </i>
   <i type="logical" name="ODDONLYGW"> F  </i>
   <i type="logical" name="EVENONLYGW"> F  </i>
   <i type="int" name="NKREDLFX">     1</i>
   <i type="int" name="NKREDLFY">     1</i>
   <i type="int" name="NKREDLFZ">     1</i>
   <i type="int" name="MAXMEM">  2800</i>
   <i type="int" name="TELESCOPE">     0</i>
   <i type="int" name="TAUPAR">     1</i>
   <i type="int" name="OMEGAPAR">    -1</i>
   <i name="LAMBDA">      1.00000000</i>
  </separator>
  <separator name="External order field" >
   <i name="OFIELD_KAPPA">      0.00000000</i>
   <v name="OFIELD_K">      0.00000000      0.00000000      0.00000000</v>
   <i name="OFIELD_Q6_NEAR">      0.00000000</i>
   <i name="OFIELD_Q6_FAR">      0.00000000</i>
   <i name="OFIELD_A">      0.00000000</i>
  </separator>
 </parameters>
 <atominfo>
  <atoms>       6 </atoms>
  <types>       2 </types>
  <array name="atoms" >
   <dimension dim="1">ion</dimension>
   <field type="string">element</field>
   <field type="int">atomtype</field>
   <set>
    <rc><c>O </c><c>   1</c></rc>
    <rc><c>O </c><c>   1</c></rc>
    <rc><c>H </c><c>   2</c></rc>
    <rc><c>H </c><c>   2</c></rc>
    <rc><c>H </c><c>   2</c></rc>
    <rc><c>H </c><c>   2</c></rc>
   </set>
  </array>
  <array name="atomtypes" >
   <dimension dim="1">type</dimension>
   <field type="int">atomspertype</field>
   <field type="string">element</field>
   <field>mass</field>
   <field>valence</field>
   <field type="string">pseudopotential</field>
   <set>
    <rc><c>   2</c><c>O </c><c>     16.00000000</c><c>      6.00000000</c><c>  PAW_PBE O_h 06Feb2004                 </c></rc>
    <rc><c>   4</c><c>H </c><c>      1.00000000</c><c>      1.00000000</c><c>  PAW_PBE H_h 06Feb2004                 </c></rc>
   </set>
  </array>
 </atominfo>
 <structure name="initialpos" >
  <crystal>
   <varray name="basis" >
    <v>      30.00000000       0.00000000       0.00000000 </v>
    <v>       0.00000000      10.00000000       0.00000000 </v>
    <v>       0.00000000       0.00000000      10.00000000 </v>
   </varray>
   <i name="volume">   3000.00000000 </i>
   <varray name="rec_basis" >
    <v>       0.03333333       0.00000000       0.00000000 </v>
    <v>       0.00000000       0.10000000       0.00000000 </v>
    <v>       0.00000000       0.00000000       0.10000000 </v>
   </varray>
  </crystal>
  <varray name="positions" >
   <v>       0.06786896       0.15710957       0.17600000 </v>
   <v>       0.95513104       0.15710957       0.17600000 </v>
   <v>       0.07854413       0.25541218       0.17439231 </v>
   <v>       0.03447255       0.16672783       0.17649328 </v>
   <v>       0.94612303       0.09941802       0.25610440 </v>
   <v>       0.94624850       0.09907990       0.09607226 </v>
  </varray>
 </structure>
 <calculation>
  <scstep>
   <time name="dav">    3.23    3.25</time>
   <time name="total">    5.90    5.95</time>
   <energy>
    <i name="alphaZ">      0.21758540 </i>
    <i name="ewald">    468.60843079 </i>
    <i name="hartreedc">  -1194.34018665 </i>
    <i name="XCdc">     60.67176640 </i>
    <i name="pawpsdc">    697.41634940 </i>
    <i name="pawaedc">   -699.85762974 </i>
    <i name="eentropy">     -0.01523027 </i>
    <i name="bandstr">    -95.22955810 </i>
    <i name="atom">    914.70366869 </i>
    <i name="e_fr_energy">    152.17519593 </i>
    <i name="e_wo_entrp">    152.19042620 </i>
    <i name="e_0_energy">    152.18281107 </i>
   </energy>
  </scstep>
  <scstep>
   <time name="dav">    4.10    4.15</time>
   <time name="total">    4.10    4.15</time>
   <energy>
    <i name="e_fr_energy">     49.56427794 </i>
    <i name="e_wo_entrp">     49.56427794 </i>
    <i name="e_0_energy">     49.56427794 </i>
   </energy>
  </scstep>
  <scstep>
   <time name="dav">    3.96    3.98</time>
   <time name="total">    3.96    3.98</time>
   <energy>
    <i name="e_fr_energy">    -23.36626271 </i>
    <i name="e_wo_entrp">    -23.36626271 </i>
    <i name="e_0_energy">    -23.36626271 </i>
   </energy>
  </scstep>
  <scstep>
   <time name="dav">    3.07    3.08</time>
   <time name="total">    3.07    3.08</time>
   <energy>
    <i name="e_fr_energy">    -31.79065101 </i>
    <i name="e_wo_entrp">    -31.79065101 </i>
    <i name="e_0_energy">    -31.79065101 </i>
   </energy>
  </scstep>
  <scstep>
   <time name="dav">    3.51    3.53</time>
   <time name="total">    4.05    4.07</time>
   <energy>
    <i name="e_fr_energy">    -32.01071748 </i>
    <i name="e_wo_entrp">    -32.01071748 </i>
    <i name="e_0_energy">    -32.01071748 </i>
   </energy>
  </scstep>
  <scstep>
   <time name="diag">    0.67    0.67</time>
   <time name="diis">    3.61    3.70</time>
   <time name="orth">    0.02    0.02</time>
   <time name="total">    7.55    7.65</time>
   <energy>
    <i name="e_fr_energy">    -28.75836798 </i>
    <i name="e_wo_entrp">    -28.75836798 </i>
    <i name="e_0_energy">    -28.75836798 </i>
   </energy>
  </scstep>
  <scstep>
   <time name="diag">    0.66    0.67</time>
   <time name="diis">    4.29    4.30</time>
   <time name="orth">    0.02    0.02</time>
   <time name="total">    8.22    8.28</time>
   <energy>
    <i name="e_fr_energy">    -28.71827275 </i>
    <i name="e_wo_entrp">    -28.71827275 </i>
    <i name="e_0_energy">    -28.71827275 </i>
   </energy>
  </scstep>
  <scstep>
   <time name="diag">    0.67    0.67</time>
   <time name="diis">    3.60    3.61</time>
   <time name="orth">    0.02    0.02</time>
   <time name="total">    7.55    7.56</time>
   <energy>
    <i name="e_fr_energy">    -29.65184814 </i>
    <i name="e_wo_entrp">    -29.65184814 </i>
    <i name="e_0_energy">    -29.65184814 </i>
   </energy>
  </scstep>
  <scstep>
   <time name="diag">    0.67    0.67</time>
   <time name="diis">    3.63    3.64</time>
   <time name="orth">    0.02    0.02</time>
   <time name="total">    7.58    7.59</time>
   <energy>
    <i name="e_fr_energy">    -28.49663842 </i>
    <i name="e_wo_entrp">    -28.49663842 </i>
    <i name="e_0_energy">    -28.49663842 </i>
   </energy>
  </scstep>
  <scstep>
   <time name="diag">    0.66    0.67</time>
   <time name="diis">    4.36    4.42</time>
   <time name="orth">    0.02    0.02</time>
   <time name="total">    8.29    8.37</time>
   <energy>
    <i name="e_fr_energy">    -28.50524488 </i>
    <i name="e_wo_entrp">    -28.50524488 </i>
    <i name="e_0_energy">    -28.50524488 </i>
   </energy>
  </scstep>
  <scstep>
   <time name="diag">    0.66    0.66</time>
   <time name="diis">    3.72    3.73</time>
   <time name="orth">    0.02    0.02</time>
   <time name="total">    7.68    7.71</time>
   <energy>
    <i name="e_fr_energy">    -28.50139386 </i>
    <i name="e_wo_entrp">    -28.50139386 </i>
    <i name="e_0_energy">    -28.50139386 </i>
   </energy>
  </scstep>
  <scstep>
   <time name="diag">    0.66    0.66</time>
   <time name="diis">    3.43    3.44</time>
   <time name="orth">    0.02    0.02</time>
   <time name="total">    7.40    7.42</time>
   <energy>
    <i name="e_fr_energy">    -28.48944363 </i>
    <i name="e_wo_entrp">    -28.48944363 </i>
    <i name="e_0_energy">    -28.48944363 </i>
   </energy>
  </scstep>
  <scstep>
   <time name="diag">    0.67    0.67</time>
   <time name="diis">    4.26    4.28</time>
   <time name="orth">    0.02    0.02</time>
   <time name="total">    8.21    8.24</time>
   <energy>
    <i name="e_fr_energy">    -28.49143049 </i>
    <i name="e_wo_entrp">    -28.49143049 </i>
    <i name="e_0_energy">    -28.49143049 </i>
   </energy>
  </scstep>
  <scstep>
   <time name="diag">    0.66    0.67</time>
   <time name="diis">    3.96    3.97</time>
   <time name="orth">    0.02    0.02</time>
   <time name="total">    7.87    7.90</time>
   <energy>
    <i name="e_fr_energy">    -28.49445560 </i>
    <i name="e_wo_entrp">    -28.49445560 </i>
    <i name="e_0_energy">    -28.49445560 </i>
   </energy>
  </scstep>
  <scstep>
   <time name="diag">    0.67    0.67</time>
   <time name="diis">    3.41    3.42</time>
   <time name="orth">    0.02    0.02</time>
   <time name="total">    7.35    7.36</time>
   <energy>
    <i name="e_fr_energy">    -28.49766014 </i>
    <i name="e_wo_entrp">    -28.49766014 </i>
    <i name="e_0_energy">    -28.49766014 </i>
   </energy>
  </scstep>
  <scstep>
   <time name="diag">    0.66    0.67</time>
   <time name="diis">    3.81    3.81</time>
   <time name="orth">    0.02    0.02</time>
   <time name="total">    7.74    7.75</time>
   <energy>
    <i name="e_fr_energy">    -28.49798041 </i>
    <i name="e_wo_entrp">    -28.49798041 </i>
    <i name="e_0_energy">    -28.49798041 </i>
   </energy>
  </scstep>
  <scstep>
   <time name="diag">    0.66    0.67</time>
   <time name="diis">    3.42    3.42</time>
   <time name="orth">    0.02    0.02</time>
   <time name="total">    7.30    7.32</time>
   <energy>
    <i name="e_fr_energy">    -28.49998809 </i>
    <i name="e_wo_entrp">    -28.49998809 </i>
    <i name="e_0_energy">    -28.49998809 </i>
   </energy>
  </scstep>
  <scstep>
   <time name="diag">    0.67    0.67</time>
   <time name="diis">    4.34    4.36</time>
   <time name="orth">    0.02    0.02</time>
   <time name="total">    8.24    8.26</time>
   <energy>
    <i name="e_fr_energy">    -28.50069763 </i>
    <i name="e_wo_entrp">    -28.50069763 </i>
    <i name="e_0_energy">    -28.50069763 </i>
   </energy>
  </scstep>
  <scstep>
   <time name="diag">    0.67    0.67</time>
   <time name="diis">    3.55    3.55</time>
   <time name="orth">    0.02    0.02</time>
   <time name="total">    7.48    7.49</time>
   <energy>
    <i name="e_fr_energy">    -28.50042398 </i>
    <i name="e_wo_entrp">    -28.50042398 </i>
    <i name="e_0_energy">    -28.50042398 </i>
   </energy>
  </scstep>
  <scstep>
   <time name="diag">    0.67    0.67</time>
   <time name="diis">    3.75    3.75</time>
   <time name="orth">    0.02    0.02</time>
   <time name="total">    7.69    7.70</time>
   <energy>
    <i name="e_fr_energy">    -28.50017276 </i>
    <i name="e_wo_entrp">    -28.50017276 </i>
    <i name="e_0_energy">    -28.50017276 </i>
   </energy>
  </scstep>
  <scstep>
   <time name="diag">    0.66    0.68</time>
   <time name="diis">    3.71    3.72</time>
   <time name="orth">    0.03    0.03</time>
   <time name="total">    7.66    7.69</time>
   <energy>
    <i name="e_fr_energy">    -28.49963675 </i>
    <i name="e_wo_entrp">    -28.49963675 </i>
    <i name="e_0_energy">    -28.49963675 </i>
   </energy>
  </scstep>
  <scstep>
   <time name="diag">    0.67    0.67</time>
   <time name="diis">    3.61    3.61</time>
   <time name="orth">    0.02    0.02</time>
   <time name="total">    7.59    7.60</time>
   <energy>
    <i name="e_fr_energy">    -28.49946380 </i>
    <i name="e_wo_entrp">    -28.49946380 </i>
    <i name="e_0_energy">    -28.49946380 </i>
   </energy>
  </scstep>
  <scstep>
   <time name="diag">    0.67    0.67</time>
   <time name="diis">    3.45    3.45</time>
   <time name="orth">    0.02    0.02</time>
   <time name="total">    7.43    7.45</time>
   <energy>
    <i name="e_fr_energy">    -28.49995312 </i>
    <i name="e_wo_entrp">    -28.49995312 </i>
    <i name="e_0_energy">    -28.49995312 </i>
   </energy>
  </scstep>
  <scstep>
   <time name="diag">    0.67    0.67</time>
   <time name="diis">    2.91    2.91</time>
   <time name="orth">    0.02    0.02</time>
   <time name="total">    6.85    6.87</time>
   <energy>
    <i name="e_fr_energy">    -28.49943017 </i>
    <i name="e_wo_entrp">    -28.49943017 </i>
    <i name="e_0_energy">    -28.49943017 </i>
   </energy>
  </scstep>
  <scstep>
   <time name="diag">    0.66    0.67</time>
   <time name="diis">    4.21    4.23</time>
   <time name="orth">    0.02    0.02</time>
   <time name="total">    8.22    8.30</time>
   <energy>
    <i name="e_fr_energy">    -28.49995371 </i>
    <i name="e_wo_entrp">    -28.49995371 </i>
    <i name="e_0_energy">    -28.49995371 </i>
   </energy>
  </scstep>
  <scstep>
   <time name="diag">    0.66    0.67</time>
   <time name="diis">    2.69    2.71</time>
   <time name="orth">    0.02    0.02</time>
   <time name="total">    6.76    6.81</time>
   <energy>
    <i name="e_fr_energy">    -28.50074219 </i>
    <i name="e_wo_entrp">    -28.50074219 </i>
    <i name="e_0_energy">    -28.50074219 </i>
   </energy>
  </scstep>
  <scstep>
   <time name="diag">    0.67    0.67</time>
   <time name="diis">    3.98    3.99</time>
   <time name="orth">    0.02    0.02</time>
   <time name="total">    8.00    8.02</time>
   <energy>
    <i name="e_fr_energy">    -28.50087025 </i>
    <i name="e_wo_entrp">    -28.50087025 </i>
    <i name="e_0_energy">    -28.50087025 </i>
   </energy>
  </scstep>
  <scstep>
   <time name="diag">    0.67    0.67</time>
   <time name="diis">    2.68    2.69</time>
   <time name="orth">    0.02    0.02</time>
   <time name="total">    6.70    6.72</time>
   <energy>
    <i name="e_fr_energy">    -28.50163058 </i>
    <i name="e_wo_entrp">    -28.50163058 </i>
    <i name="e_0_energy">    -28.50163058 </i>
   </energy>
  </scstep>
  <scstep>
   <time name="diag">    0.66    0.67</time>
   <time name="diis">    3.62    3.63</time>
   <time name="orth">    0.02    0.02</time>
   <time name="total">    7.62    7.63</time>
   <energy>
    <i name="e_fr_energy">    -28.50187842 </i>
    <i name="e_wo_entrp">    -28.50187842 </i>
    <i name="e_0_energy">    -28.50187842 </i>
   </energy>
  </scstep>
  <scstep>
   <time name="diag">    0.67    0.67</time>
   <time name="diis">    3.26    3.27</time>
   <time name="orth">    0.02    0.02</time>
   <time name="total">    7.27    7.29</time>
   <energy>
    <i name="e_fr_energy">    -28.50206512 </i>
    <i name="e_wo_entrp">    -28.50206512 </i>
    <i name="e_0_energy">    -28.50206512 </i>
   </energy>
  </scstep>
  <scstep>
   <time name="diag">    0.67    0.67</time>
   <time name="diis">    3.89    3.89</time>
   <time name="orth">    0.02    0.02</time>
   <time name="total">    7.91    7.92</time>
   <energy>
    <i name="e_fr_energy">    -28.50215043 </i>
    <i name="e_wo_entrp">    -28.50215043 </i>
    <i name="e_0_energy">    -28.50215043 </i>
   </energy>
  </scstep>
  <scstep>
   <time name="diag">    0.66    0.67</time>
   <time name="diis">    3.07    3.08</time>
   <time name="orth">    0.02    0.02</time>
   <time name="total">    7.13    7.15</time>
   <energy>
    <i name="e_fr_energy">    -28.50219346 </i>
    <i name="e_wo_entrp">    -28.50219346 </i>
    <i name="e_0_energy">    -28.50219346 </i>
   </energy>
  </scstep>
  <scstep>
   <time name="diag">    0.67    0.67</time>
   <time name="diis">    3.66    3.66</time>
   <time name="orth">    0.02    0.02</time>
   <time name="total">    7.73    7.75</time>
   <energy>
    <i name="e_fr_energy">    -28.50221074 </i>
    <i name="e_wo_entrp">    -28.50221074 </i>
    <i name="e_0_energy">    -28.50221074 </i>
   </energy>
  </scstep>
  <scstep>
   <time name="diag">    0.76    0.77</time>
   <time name="diis">    3.52    3.54</time>
   <time name="orth">    0.02    0.02</time>
   <time name="total">    7.67    7.72</time>
   <energy>
    <i name="e_fr_energy">    -28.50222208 </i>
    <i name="e_wo_entrp">    -28.50222208 </i>
    <i name="e_0_energy">    -28.50222208 </i>
   </energy>
  </scstep>
  <scstep>
   <time name="diag">    0.66    0.66</time>
   <time name="diis">    3.83    3.84</time>
   <time name="orth">    0.02    0.02</time>
   <time name="total">    7.92    7.95</time>
   <energy>
    <i name="e_fr_energy">    -28.50222841 </i>
    <i name="e_wo_entrp">    -28.50222841 </i>
    <i name="e_0_energy">    -28.50222841 </i>
   </energy>
  </scstep>
  <scstep>
   <time name="diag">    0.67    0.67</time>
   <time name="diis">    3.14    3.14</time>
   <time name="orth">    0.02    0.02</time>
   <time name="total">    7.27    7.28</time>
   <energy>
    <i name="e_fr_energy">    -28.50222967 </i>
    <i name="e_wo_entrp">    -28.50222967 </i>
    <i name="e_0_energy">    -28.50222967 </i>
   </energy>
  </scstep>
  <scstep>
   <time name="diag">    0.66    0.66</time>
   <time name="diis">    3.49    3.49</time>
   <time name="orth">    0.02    0.02</time>
   <time name="total">    7.63    7.64</time>
   <energy>
    <i name="e_fr_energy">    -28.50223116 </i>
    <i name="e_wo_entrp">    -28.50223116 </i>
    <i name="e_0_energy">    -28.50223116 </i>
   </energy>
  </scstep>
  <scstep>
   <time name="diag">    0.67    0.67</time>
   <time name="diis">    3.18    3.18</time>
   <time name="orth">    0.02    0.02</time>
   <time name="total">    7.38    7.39</time>
   <energy>
    <i name="e_fr_energy">    -28.50223149 </i>
    <i name="e_wo_entrp">    -28.50223149 </i>
    <i name="e_0_energy">    -28.50223149 </i>
   </energy>
  </scstep>
  <scstep>
   <time name="diag">    0.67    0.67</time>
   <time name="diis">    2.84    2.84</time>
   <time name="orth">    0.02    0.02</time>
   <time name="total">    7.04    7.04</time>
   <energy>
    <i name="e_fr_energy">    -28.50223181 </i>
    <i name="e_wo_entrp">    -28.50223181 </i>
    <i name="e_0_energy">    -28.50223181 </i>
   </energy>
  </scstep>
  <scstep>
   <time name="diag">    0.67    0.67</time>
   <time name="diis">    2.68    2.68</time>
   <time name="orth">    0.02    0.02</time>
   <time name="total">    6.89    6.89</time>
   <energy>
    <i name="e_fr_energy">    -28.50223199 </i>
    <i name="e_wo_entrp">    -28.50223199 </i>
    <i name="e_0_energy">    -28.50223199 </i>
   </energy>
  </scstep>
  <scstep>
   <time name="diag">    0.67    0.67</time>
   <time name="diis">    2.67    2.68</time>
   <time name="orth">    0.02    0.02</time>
   <time name="total">    6.87    6.88</time>
   <energy>
    <i name="e_fr_energy">    -28.50223205 </i>
    <i name="e_wo_entrp">    -28.50223205 </i>
    <i name="e_0_energy">    -28.50223205 </i>
   </energy>
  </scstep>
  <scstep>
   <time name="diag">    0.66    0.66</time>
   <time name="diis">    2.33    2.36</time>
   <time name="orth">    0.02    0.02</time>
   <time name="total">    6.58    6.61</time>
   <energy>
    <i name="e_fr_energy">    -28.50223210 </i>
    <i name="e_wo_entrp">    -28.50223210 </i>
    <i name="e_0_energy">    -28.50223210 </i>
   </energy>
  </scstep>
  <scstep>
   <time name="diag">    0.67    0.67</time>
   <time name="diis">    2.68    2.69</time>
   <time name="orth">    0.02    0.02</time>
   <time name="total">    6.95    6.96</time>
   <energy>
    <i name="e_fr_energy">    -28.50223218 </i>
    <i name="e_wo_entrp">    -28.50223218 </i>
    <i name="e_0_energy">    -28.50223218 </i>
   </energy>
  </scstep>
  <scstep>
   <time name="diag">    0.67    0.67</time>
   <time name="diis">    2.45    2.45</time>
   <time name="orth">    0.02    0.02</time>
   <time name="total">    6.68    6.69</time>
   <energy>
    <i name="e_fr_energy">    -28.50223226 </i>
    <i name="e_wo_entrp">    -28.50223226 </i>
    <i name="e_0_energy">    -28.50223226 </i>
   </energy>
  </scstep>
  <scstep>
   <time name="diag">    0.67    0.67</time>
   <time name="diis">    2.51    2.51</time>
   <time name="orth">    0.02    0.02</time>
   <time name="total">    6.75    6.79</time>
   <energy>
    <i name="e_fr_energy">    -28.50223234 </i>
    <i name="e_wo_entrp">    -28.50223234 </i>
    <i name="e_0_energy">    -28.50223234 </i>
   </energy>
  </scstep>
  <scstep>
   <time name="diag">    0.67    0.67</time>
   <time name="diis">    2.62    2.62</time>
   <time name="orth">    0.02    0.02</time>
   <time name="total">    6.88    6.88</time>
   <energy>
    <i name="e_fr_energy">    -28.50223261 </i>
    <i name="e_wo_entrp">    -28.50223261 </i>
    <i name="e_0_energy">    -28.50223261 </i>
   </energy>
  </scstep>
  <scstep>
   <time name="diag">    0.67    0.67</time>
   <time name="diis">    2.62    2.62</time>
   <time name="orth">    0.02    0.02</time>
   <time name="total">    6.86    6.87</time>
   <energy>
    <i name="e_fr_energy">    -28.50223277 </i>
    <i name="e_wo_entrp">    -28.50223277 </i>
    <i name="e_0_energy">    -28.50223277 </i>
   </energy>
  </scstep>
  <scstep>
   <time name="diag">    0.67    0.67</time>
   <time name="diis">    2.57    2.57</time>
   <time name="orth">    0.02    0.02</time>
   <time name="total">    6.84    6.84</time>
   <energy>
    <i name="e_fr_energy">    -28.50223288 </i>
    <i name="e_wo_entrp">    -28.50223288 </i>
    <i name="e_0_energy">    -28.50223288 </i>
   </energy>
  </scstep>
  <scstep>
   <time name="diag">    0.67    0.67</time>
   <time name="diis">    2.83    2.83</time>
   <time name="orth">    0.02    0.02</time>
   <time name="total">    7.13    7.13</time>
   <energy>
    <i name="e_fr_energy">    -28.50223294 </i>
    <i name="e_wo_entrp">    -28.50223294 </i>
    <i name="e_0_energy">    -28.50223294 </i>
   </energy>
  </scstep>
  <scstep>
   <time name="diag">    0.67    0.67</time>
   <time name="diis">    2.35    2.35</time>
   <time name="orth">    0.02    0.02</time>
   <time name="total">    6.62    6.62</time>
   <energy>
    <i name="e_fr_energy">    -28.50223298 </i>
    <i name="e_wo_entrp">    -28.50223298 </i>
    <i name="e_0_energy">    -28.50223298 </i>
   </energy>
  </scstep>
  <scstep>
   <time name="diag">    0.78    0.79</time>
   <time name="diis">    2.61    2.61</time>
   <time name="orth">    0.02    0.02</time>
   <time name="total">    6.96    6.98</time>
   <energy>
    <i name="e_fr_energy">    -28.50223299 </i>
    <i name="e_wo_entrp">    -28.50223299 </i>
    <i name="e_0_energy">    -28.50223299 </i>
   </energy>
  </scstep>
  <scstep>
   <time name="diag">    0.67    0.67</time>
   <time name="diis">    2.58    2.58</time>
   <time name="orth">    0.02    0.02</time>
   <time name="total">    6.01    6.02</time>
   <energy>
    <i name="alphaZ">      0.21758540 </i>
    <i name="ewald">    468.60843079 </i>
    <i name="hartreedc">  -1258.72275119 </i>
    <i name="XCdc">     64.01153810 </i>
    <i name="pawpsdc">   5035.42027148 </i>
    <i name="pawaedc">  -5038.31264515 </i>
    <i name="eentropy">     -0.00000000 </i>
    <i name="bandstr">   -214.42833113 </i>
    <i name="atom">    914.70366869 </i>
    <i name="e_fr_energy">    -28.50223300 </i>
    <i name="e_wo_entrp">    -28.50223300 </i>
    <i name="e_0_energy">    -28.50223300 </i>
   </energy>
  </scstep>
  <structure>
   <crystal>
    <varray name="basis" >
     <v>      30.00000000       0.00000000       0.00000000 </v>
     <v>       0.00000000      10.00000000       0.00000000 </v>
     <v>       0.00000000       0.00000000      10.00000000 </v>
    </varray>
    <i name="volume">   3000.00000000 </i>
    <varray name="rec_basis" >
     <v>       0.03333333       0.00000000       0.00000000 </v>
     <v>       0.00000000       0.10000000       0.00000000 </v>
     <v>       0.00000000       0.00000000       0.10000000 </v>
    </varray>
   </crystal>
   <varray name="positions" >
    <v>       0.06786896       0.15710957       0.17600000 </v>
    <v>       0.95513104       0.15710957       0.17600000 </v>
    <v>       0.07854413       0.25541218       0.17439231 </v>
    <v>       0.03447255       0.16672783       0.17649328 </v>
    <v>       0.94612303       0.09941802       0.25610440 </v>
    <v>       0.94624850       0.09907990       0.09607226 </v>
   </varray>
  </structure>
  <varray name="forces" >
   <v>      -0.57575298       2.47991110      -0.03134048 </v>
   <v>      -0.94384012      -2.31703466       0.01626095 </v>
   <v>      -0.81070695      -2.39194685       0.03954863 </v>
   <v>       1.22597277      -0.09481769      -0.00926794 </v>
   <v>       0.55756370       1.16260195      -1.69747552 </v>
   <v>       0.54676358       1.16128615       1.68227435 </v>
  </varray>
  <varray name="stress" >
   <v>      -1.26809602      -0.70313226       0.01536808 </v>
   <v>      -0.70313225      -2.00184449       0.02189836 </v>
   <v>       0.01536808       0.02189837      -1.45568042 </v>
  </varray>
  <energy>
   <i name="e_fr_energy">    -28.50223300 </i>
   <i name="e_wo_entrp">    -28.50223300 </i>
   <i name="e_0_energy">     -0.00000000 </i>
  </energy>
  <time name="totalsc">  375.27  376.51</time>
  <eigenvalues>
   <array>
    <dimension dim="1">band</dimension>
    <dimension dim="2">kpoint</dimension>
    <dimension dim="3">spin</dimension>
    <field>eigene</field>
    <field>occ</field>
    <set>
     <set comment="spin 1">
      <set comment="kpoint 1">
       <r>  -25.2452    1.0000 </r>
       <r>  -24.1755    1.0000 </r>
       <r>  -13.0224    1.0000 </r>
       <r>  -11.9718    1.0000 </r>
       <r>   -9.8510    1.0000 </r>
       <r>   -8.7554    1.0000 </r>
       <r>   -7.6357    1.0000 </r>
       <r>   -6.5571    1.0000 </r>
       <r>   -1.4760    0.0000 </r>
       <r>   -0.3713    0.0000 </r>
       <r>    0.0588    0.0000 </r>
       <r>    0.2255    0.0000 </r>
      </set>
      <set comment="kpoint 2">
       <r>  -25.2452    1.0000 </r>
       <r>  -24.1755    1.0000 </r>
       <r>  -13.0224    1.0000 </r>
       <r>  -11.9718    1.0000 </r>
       <r>   -9.8510    1.0000 </r>
       <r>   -8.7554    1.0000 </r>
       <r>   -7.6357    1.0000 </r>
       <r>   -6.5571    1.0000 </r>
       <r>   -1.4760    0.0000 </r>
       <r>   -0.3714    0.0000 </r>
       <r>    0.0595    0.0000 </r>
       <r>    0.2250    0.0000 </r>
      </set>
     </set>
    </set>
   </array>
  </eigenvalues>
  <separator name="orbital magnetization" >
   <v name="MAGDIPOLOUT">      0.00000000      0.00000000      0.00000000</v>
  </separator>
  <dos>
   <i name="efermi">     -6.24674271 </i>
   <total>
    <array>
     <dimension dim="1">gridpoints</dimension>
     <dimension dim="2">spin</dimension>
     <field>energy</field>
     <field>total</field>
     <field>integrated</field>
     <set>
      <set comment="spin 1">
       <r>   -26.5187     0.0000     0.0000 </r>
       <r>   -26.4254     0.0000     0.0000 </r>
       <r>   -26.3320     0.0000     0.0000 </r>
       <r>   -26.2386     0.0000     0.0000 </r>
       <r>   -26.1452     0.0000     0.0000 </r>
       <r>   -26.0518     0.0000     0.0000 </r>
       <r>   -25.9584     0.0000     0.0000 </r>
       <r>   -25.8650     0.0000     0.0000 </r>
       <r>   -25.7716     0.0000     0.0000 </r>
       <r>   -25.6782     0.0000     0.0000 </r>
       <r>   -25.5848     0.0000     0.0000 </r>
       <r>   -25.4914     0.0000     0.0000 </r>
       <r>   -25.3980     0.0002     0.0000 </r>
       <r>   -25.3046     0.9931     0.0928 </r>
       <r>   -25.2113    16.8157     1.6632 </r>
       <r>   -25.1179     3.6026     1.9997 </r>
       <r>   -25.0245     0.0034     2.0000 </r>
       <r>   -24.9311     0.0000     2.0000 </r>
       <r>   -24.8377     0.0000     2.0000 </r>
       <r>   -24.7443     0.0000     2.0000 </r>
       <r>   -24.6509     0.0000     2.0000 </r>
       <r>   -24.5575     0.0000     2.0000 </r>
       <r>   -24.4641     0.0000     2.0000 </r>
       <r>   -24.3707     0.0000     2.0000 </r>
       <r>   -24.2773     0.0427     2.0040 </r>
       <r>   -24.1839     8.6564     2.8124 </r>
       <r>   -24.0905    12.5424     3.9838 </r>
       <r>   -23.9972     0.1735     4.0000 </r>
       <r>   -23.9038     0.0000     4.0000 </r>
       <r>   -23.8104     0.0000     4.0000 </r>
       <r>   -23.7170     0.0000     4.0000 </r>
       <r>   -23.6236     0.0000     4.0000 </r>
       <r>   -23.5302     0.0000     4.0000 </r>
       <r>   -23.4368     0.0000     4.0000 </r>
       <r>   -23.3434     0.0000     4.0000 </r>
       <r>   -23.2500     0.0000     4.0000 </r>
       <r>   -23.1566     0.0000     4.0000 </r>
       <r>   -23.0632     0.0000     4.0000 </r>
       <r>   -22.9698     0.0000     4.0000 </r>
       <r>   -22.8764     0.0000     4.0000 </r>
       <r>   -22.7830     0.0000     4.0000 </r>
       <r>   -22.6897     0.0000     4.0000 </r>
       <r>   -22.5963     0.0000     4.0000 </r>
       <r>   -22.5029     0.0000     4.0000 </r>
       <r>   -22.4095     0.0000     4.0000 </r>
       <r>   -22.3161     0.0000     4.0000 </r>
       <r>   -22.2227     0.0000     4.0000 </r>
       <r>   -22.1293     0.0000     4.0000 </r>
       <r>   -22.0359     0.0000     4.0000 </r>
       <r>   -21.9425     0.0000     4.0000 </r>
       <r>   -21.8491     0.0000     4.0000 </r>
       <r>   -21.7557     0.0000     4.0000 </r>
       <r>   -21.6623     0.0000     4.0000 </r>
       <r>   -21.5689     0.0000     4.0000 </r>
       <r>   -21.4756     0.0000     4.0000 </r>
       <r>   -21.3822     0.0000     4.0000 </r>
       <r>   -21.2888     0.0000     4.0000 </r>
       <r>   -21.1954     0.0000     4.0000 </r>
       <r>   -21.1020     0.0000     4.0000 </r>
       <r>   -21.0086     0.0000     4.0000 </r>
       <r>   -20.9152     0.0000     4.0000 </r>
       <r>   -20.8218     0.0000     4.0000 </r>
       <r>   -20.7284     0.0000     4.0000 </r>
       <r>   -20.6350     0.0000     4.0000 </r>
       <r>   -20.5416     0.0000     4.0000 </r>
       <r>   -20.4482     0.0000     4.0000 </r>
       <r>   -20.3548     0.0000     4.0000 </r>
       <r>   -20.2615     0.0000     4.0000 </r>
       <r>   -20.1681     0.0000     4.0000 </r>
       <r>   -20.0747     0.0000     4.0000 </r>
       <r>   -19.9813     0.0000     4.0000 </r>
       <r>   -19.8879     0.0000     4.0000 </r>
       <r>   -19.7945     0.0000     4.0000 </r>
       <r>   -19.7011     0.0000     4.0000 </r>
       <r>   -19.6077     0.0000     4.0000 </r>
       <r>   -19.5143     0.0000     4.0000 </r>
       <r>   -19.4209     0.0000     4.0000 </r>
       <r>   -19.3275     0.0000     4.0000 </r>
       <r>   -19.2341     0.0000     4.0000 </r>
       <r>   -19.1407     0.0000     4.0000 </r>
       <r>   -19.0473     0.0000     4.0000 </r>
       <r>   -18.9540     0.0000     4.0000 </r>
       <r>   -18.8606     0.0000     4.0000 </r>
       <r>   -18.7672     0.0000     4.0000 </r>
       <r>   -18.6738     0.0000     4.0000 </r>
       <r>   -18.5804     0.0000     4.0000 </r>
       <r>   -18.4870     0.0000     4.0000 </r>
       <r>   -18.3936     0.0000     4.0000 </r>
       <r>   -18.3002     0.0000     4.0000 </r>
       <r>   -18.2068     0.0000     4.0000 </r>
       <r>   -18.1134     0.0000     4.0000 </r>
       <r>   -18.0200     0.0000     4.0000 </r>
       <r>   -17.9266     0.0000     4.0000 </r>
       <r>   -17.8332     0.0000     4.0000 </r>
       <r>   -17.7399     0.0000     4.0000 </r>
       <r>   -17.6465     0.0000     4.0000 </r>
       <r>   -17.5531     0.0000     4.0000 </r>
       <r>   -17.4597     0.0000     4.0000 </r>
       <r>   -17.3663     0.0000     4.0000 </r>
       <r>   -17.2729     0.0000     4.0000 </r>
       <r>   -17.1795     0.0000     4.0000 </r>
       <r>   -17.0861     0.0000     4.0000 </r>
       <r>   -16.9927     0.0000     4.0000 </r>
       <r>   -16.8993     0.0000     4.0000 </r>
       <r>   -16.8059     0.0000     4.0000 </r>
       <r>   -16.7125     0.0000     4.0000 </r>
       <r>   -16.6191     0.0000     4.0000 </r>
       <r>   -16.5258     0.0000     4.0000 </r>
       <r>   -16.4324     0.0000     4.0000 </r>
       <r>   -16.3390     0.0000     4.0000 </r>
       <r>   -16.2456     0.0000     4.0000 </r>
       <r>   -16.1522     0.0000     4.0000 </r>
       <r>   -16.0588     0.0000     4.0000 </r>
       <r>   -15.9654     0.0000     4.0000 </r>
       <r>   -15.8720     0.0000     4.0000 </r>
       <r>   -15.7786     0.0000     4.0000 </r>
       <r>   -15.6852     0.0000     4.0000 </r>
       <r>   -15.5918     0.0000     4.0000 </r>
       <r>   -15.4984     0.0000     4.0000 </r>
       <r>   -15.4050     0.0000     4.0000 </r>
       <r>   -15.3117     0.0000     4.0000 </r>
       <r>   -15.2183     0.0000     4.0000 </r>
       <r>   -15.1249     0.0000     4.0000 </r>
       <r>   -15.0315     0.0000     4.0000 </r>
       <r>   -14.9381     0.0000     4.0000 </r>
       <r>   -14.8447     0.0000     4.0000 </r>
       <r>   -14.7513     0.0000     4.0000 </r>
       <r>   -14.6579     0.0000     4.0000 </r>
       <r>   -14.5645     0.0000     4.0000 </r>
       <r>   -14.4711     0.0000     4.0000 </r>
       <r>   -14.3777     0.0000     4.0000 </r>
       <r>   -14.2843     0.0000     4.0000 </r>
       <r>   -14.1909     0.0000     4.0000 </r>
       <r>   -14.0975     0.0000     4.0000 </r>
       <r>   -14.0042     0.0000     4.0000 </r>
       <r>   -13.9108     0.0000     4.0000 </r>
       <r>   -13.8174     0.0000     4.0000 </r>
       <r>   -13.7240     0.0000     4.0000 </r>
       <r>   -13.6306     0.0000     4.0000 </r>
       <r>   -13.5372     0.0000     4.0000 </r>
       <r>   -13.4438     0.0000     4.0000 </r>
       <r>   -13.3504     0.0000     4.0000 </r>
       <r>   -13.2570     0.0000     4.0000 </r>
       <r>   -13.1636     0.0007     4.0001 </r>
       <r>   -13.0702     1.8833     4.1759 </r>
       <r>   -12.9768    17.4144     5.8023 </r>
       <r>   -12.8834     2.1157     5.9999 </r>
       <r>   -12.7901     0.0009     6.0000 </r>
       <r>   -12.6967     0.0000     6.0000 </r>
       <r>   -12.6033     0.0000     6.0000 </r>
       <r>   -12.5099     0.0000     6.0000 </r>
       <r>   -12.4165     0.0000     6.0000 </r>
       <r>   -12.3231     0.0000     6.0000 </r>
       <r>   -12.2297     0.0000     6.0000 </r>
       <r>   -12.1363     0.0000     6.0000 </r>
       <r>   -12.0429     0.4735     6.0442 </r>
       <r>   -11.9495    15.2774     7.4710 </r>
       <r>   -11.8561     5.6526     7.9989 </r>
       <r>   -11.7627     0.0115     8.0000 </r>
       <r>   -11.6693     0.0000     8.0000 </r>
       <r>   -11.5760     0.0000     8.0000 </r>
       <r>   -11.4826     0.0000     8.0000 </r>
       <r>   -11.3892     0.0000     8.0000 </r>
       <r>   -11.2958     0.0000     8.0000 </r>
       <r>   -11.2024     0.0000     8.0000 </r>
       <r>   -11.1090     0.0000     8.0000 </r>
       <r>   -11.0156     0.0000     8.0000 </r>
       <r>   -10.9222     0.0000     8.0000 </r>
       <r>   -10.8288     0.0000     8.0000 </r>
       <r>   -10.7354     0.0000     8.0000 </r>
       <r>   -10.6420     0.0000     8.0000 </r>
       <r>   -10.5486     0.0000     8.0000 </r>
       <r>   -10.4552     0.0000     8.0000 </r>
       <r>   -10.3618     0.0000     8.0000 </r>
       <r>   -10.2685     0.0000     8.0000 </r>
       <r>   -10.1751     0.0000     8.0000 </r>
       <r>   -10.0817     0.0000     8.0000 </r>
       <r>    -9.9883     0.0011     8.0001 </r>
       <r>    -9.8949     2.2935     8.2143 </r>
       <r>    -9.8015    17.3900     9.8384 </r>
       <r>    -9.7081     1.7298     9.9999 </r>
       <r>    -9.6147     0.0006    10.0000 </r>
       <r>    -9.5213     0.0000    10.0000 </r>
       <r>    -9.4279     0.0000    10.0000 </r>
       <r>    -9.3345     0.0000    10.0000 </r>
       <r>    -9.2411     0.0000    10.0000 </r>
       <r>    -9.1477     0.0000    10.0000 </r>
       <r>    -9.0544     0.0000    10.0000 </r>
       <r>    -8.9610     0.0000    10.0000 </r>
       <r>    -8.8676     0.0162    10.0015 </r>
       <r>    -8.7742     6.3617    10.5956 </r>
       <r>    -8.6808    14.6647    11.9652 </r>
       <r>    -8.5874     0.3724    12.0000 </r>
       <r>    -8.4940     0.0000    12.0000 </r>
       <r>    -8.4006     0.0000    12.0000 </r>
       <r>    -8.3072     0.0000    12.0000 </r>
       <r>    -8.2138     0.0000    12.0000 </r>
       <r>    -8.1204     0.0000    12.0000 </r>
       <r>    -8.0270     0.0000    12.0000 </r>
       <r>    -7.9336     0.0000    12.0000 </r>
       <r>    -7.8403     0.0000    12.0000 </r>
       <r>    -7.7469     0.0179    12.0017 </r>
       <r>    -7.6535     6.5732    12.6156 </r>
       <r>    -7.5601    14.4770    13.9676 </r>
       <r>    -7.4667     0.3470    14.0000 </r>
       <r>    -7.3733     0.0000    14.0000 </r>
       <r>    -7.2799     0.0000    14.0000 </r>
       <r>    -7.1865     0.0000    14.0000 </r>
       <r>    -7.0931     0.0000    14.0000 </r>
       <r>    -6.9997     0.0000    14.0000 </r>
       <r>    -6.9063     0.0000    14.0000 </r>
       <r>    -6.8129     0.0000    14.0000 </r>
       <r>    -6.7195     0.0000    14.0000 </r>
       <r>    -6.6261     0.5452    14.0509 </r>
       <r>    -6.5328    15.6171    15.5094 </r>
       <r>    -6.4394     5.2433    15.9991 </r>
       <r>    -6.3460     0.0093    16.0000 </r>
       <r>    -6.2526     0.0000    16.0000 </r>
       <r>    -6.1592     0.0000    16.0000 </r>
       <r>    -6.0658     0.0000    16.0000 </r>
       <r>    -5.9724     0.0000    16.0000 </r>
       <r>    -5.8790     0.0000    16.0000 </r>
       <r>    -5.7856     0.0000    16.0000 </r>
       <r>    -5.6922     0.0000    16.0000 </r>
       <r>    -5.5988     0.0000    16.0000 </r>
       <r>    -5.5054     0.0000    16.0000 </r>
       <r>    -5.4120     0.0000    16.0000 </r>
       <r>    -5.3187     0.0000    16.0000 </r>
       <r>    -5.2253     0.0000    16.0000 </r>
       <r>    -5.1319     0.0000    16.0000 </r>
       <r>    -5.0385     0.0000    16.0000 </r>
       <r>    -4.9451     0.0000    16.0000 </r>
       <r>    -4.8517     0.0000    16.0000 </r>
       <r>    -4.7583     0.0000    16.0000 </r>
       <r>    -4.6649     0.0000    16.0000 </r>
       <r>    -4.5715     0.0000    16.0000 </r>
       <r>    -4.4781     0.0000    16.0000 </r>
       <r>    -4.3847     0.0000    16.0000 </r>
       <r>    -4.2913     0.0000    16.0000 </r>
       <r>    -4.1979     0.0000    16.0000 </r>
       <r>    -4.1046     0.0000    16.0000 </r>
       <r>    -4.0112     0.0000    16.0000 </r>
       <r>    -3.9178     0.0000    16.0000 </r>
       <r>    -3.8244     0.0000    16.0000 </r>
       <r>    -3.7310     0.0000    16.0000 </r>
       <r>    -3.6376     0.0000    16.0000 </r>
       <r>    -3.5442     0.0000    16.0000 </r>
       <r>    -3.4508     0.0000    16.0000 </r>
       <r>    -3.3574     0.0000    16.0000 </r>
       <r>    -3.2640     0.0000    16.0000 </r>
       <r>    -3.1706     0.0000    16.0000 </r>
       <r>    -3.0772     0.0000    16.0000 </r>
       <r>    -2.9838     0.0000    16.0000 </r>
       <r>    -2.8905     0.0000    16.0000 </r>
       <r>    -2.7971     0.0000    16.0000 </r>
       <r>    -2.7037     0.0000    16.0000 </r>
       <r>    -2.6103     0.0000    16.0000 </r>
       <r>    -2.5169     0.0000    16.0000 </r>
       <r>    -2.4235     0.0000    16.0000 </r>
       <r>    -2.3301     0.0000    16.0000 </r>
       <r>    -2.2367     0.0000    16.0000 </r>
       <r>    -2.1433     0.0000    16.0000 </r>
       <r>    -2.0499     0.0000    16.0000 </r>
       <r>    -1.9565     0.0000    16.0000 </r>
       <r>    -1.8631     0.0000    16.0000 </r>
       <r>    -1.7697     0.0000    16.0000 </r>
       <r>    -1.6763     0.0000    16.0000 </r>
       <r>    -1.5830     0.0266    16.0025 </r>
       <r>    -1.4896     7.4781    16.7009 </r>
       <r>    -1.3962    13.6535    17.9760 </r>
       <r>    -1.3028     0.2568    18.0000 </r>
       <r>    -1.2094     0.0000    18.0000 </r>
       <r>    -1.1160     0.0000    18.0000 </r>
       <r>    -1.0226     0.0000    18.0000 </r>
       <r>    -0.9292     0.0000    18.0000 </r>
       <r>    -0.8358     0.0000    18.0000 </r>
       <r>    -0.7424     0.0000    18.0000 </r>
       <r>    -0.6490     0.0000    18.0000 </r>
       <r>    -0.5556     0.0000    18.0000 </r>
       <r>    -0.4622     0.1087    18.0102 </r>
       <r>    -0.3689    11.2048    19.0566 </r>
       <r>    -0.2755    10.0300    19.9933 </r>
       <r>    -0.1821     0.0715    20.0000 </r>
       <r>    -0.0887     0.0003    20.0000 </r>
       <r>     0.0047     1.3241    20.1237 </r>
       <r>     0.0981    17.1978    21.7298 </r>
       <r>     0.1915     6.5289    22.3396 </r>
       <r>     0.2849    16.7978    23.9084 </r>
       <r>     0.3783     0.9810    24.0000 </r>
       <r>     0.4717     0.0002    24.0000 </r>
       <r>     0.5651     0.0000    24.0000 </r>
       <r>     0.6585     0.0000    24.0000 </r>
       <r>     0.7519     0.0000    24.0000 </r>
       <r>     0.8452     0.0000    24.0000 </r>
       <r>     0.9386     0.0000    24.0000 </r>
       <r>     1.0320     0.0000    24.0000 </r>
       <r>     1.1254     0.0000    24.0000 </r>
       <r>     1.2188     0.0000    24.0000 </r>
       <r>     1.3122     0.0000    24.0000 </r>
       <r>     1.4056     0.0000    24.0000 </r>
       <r>     1.4990     0.0000    24.0000 </r>
      </set>
     </set>
    </array>
   </total>
  </dos>
 </calculation>
 <structure name="finalpos" >
  <crystal>
   <varray name="basis" >
    <v>      30.00000000       0.00000000       0.00000000 </v>
    <v>       0.00000000      10.00000000       0.00000000 </v>
    <v>       0.00000000       0.00000000      10.00000000 </v>
   </varray>
   <i name="volume">   3000.00000000 </i>
   <varray name="rec_basis" >
    <v>       0.03333333       0.00000000       0.00000000 </v>
    <v>       0.00000000       0.10000000       0.00000000 </v>
    <v>       0.00000000       0.00000000       0.10000000 </v>
   </varray>
  </crystal>
  <varray name="positions" >
   <v>       0.06786896       0.15710957       0.17600000 </v>
   <v>       0.95513104       0.15710957       0.17600000 </v>
   <v>       0.07854413       0.25541218       0.17439231 </v>
   <v>       0.03447255       0.16672783       0.17649328 </v>
   <v>       0.94612303       0.09941802       0.25610440 </v>
   <v>       0.94624850       0.09907990       0.09607226 </v>
  </varray>
 </structure>
</modeling>
