5.877049922943115234e+00 5.815460205078125000e+00 1.020569992065429688e+01 3.340749979019165039e+00 1.504080009460449219e+01 1.463059997558593750e+01 3.905329942703247070e+00 8.130709648132324219e+00 1.050679969787597656e+01 1.311789989471435547e+01 3.059220075607299805e+00 1.577830028533935547e+01 2.618959903717041016e+00 1.077750015258789062e+01 1.309000015258789062e+01 3.103389978408813477e+00 5.104800224304199219e+00 1.415939998626708984e+01 5.446199893951416016e+00 9.156660079956054688e+00 4.210579872131347656e+00 8.388799667358398438e+00 1.343029975891113281e+01 1.943879961967468262e+00 1.206579971313476562e+01 4.620150089263916016e+00 1.415570020675659180e+00 1.062189960479736328e+01 7.119200229644775391e+00 1.424160003662109375e+00 1.216740036010742188e+01 7.706099748611450195e-01 7.746280193328857422e+00 2.216409921646118164e+00 9.866840362548828125e+00 1.050740003585815430e+00 1.035569953918457031e+01 2.100990056991577148e+00 1.327289962768554688e+01 1.164130020141601562e+01 1.207820034027099609e+01 1.588570022583007812e+01 1.159270048141479492e+00 1.277369976043701172e+01 9.683200120925903320e-01 8.280249595642089844e+00 1.010980033874511719e+01 1.423770046234130859e+01 5.887700080871582031e+00 3.511430025100708008e+00 1.488589954376220703e+01 5.999889850616455078e+00 7.028110027313232422e+00 2.597579956054687500e+00 1.033860015869140625e+01 3.798700094223022461e+00 1.563029956817626953e+01 5.007480144500732422e+00 2.076879978179931641e+00 9.755000114440917969e+00 7.130589962005615234e+00 4.473820209503173828e+00 6.289730072021484375e+00 1.147329998016357422e+01 1.367829990386962891e+01 1.345129966735839844e+01 1.415859985351562500e+01 1.322760009765625000e+01 1.315750026702880859e+01 1.400529980659484863e+00 3.129120111465454102e+00 1.277239990234375000e+01 1.246310043334960938e+01 1.308679962158203125e+01 1.822299957275390625e+01 1.690539956092834473e+00 1.229559993743896484e+01 6.054800033569335938e+00 1.351270008087158203e+01 1.328220009803771973e+00 1.318629980087280273e+00 1.442969989776611328e+01 5.828440189361572266e+00 1.883769989013671875e+00 2.069289922714233398e+00 7.093180179595947266e+00 1.230900001525878906e+01 1.464560031890869141e+01 1.441049957275390625e+01 1.458739995956420898e+00 6.872509956359863281e+00 4.939559936523437500e+00 1.250489997863769531e+01 7.440159797668457031e+00 1.482040023803710938e+01 1.473190021514892578e+01 5.260199904441833496e-01 4.598710060119628906e+00 1.017759990692138672e+01 3.478110074996948242e+00 1.292119979858398438e+01 1.245629978179931641e+01 1.449839973449707031e+01 2.845099925994873047e+00 8.376399993896484375e+00 7.462359905242919922e+00 6.900569915771484375e+00 7.833670139312744141e+00 1.517150020599365234e+01 1.576999947428703308e-02 8.064860343933105469e+00 5.518400192260742188e+00 9.158559799194335938e+00 7.140649795532226562e+00 1.422000026702880859e+01 3.574929952621459961e+00 5.682159900665283203e+00 1.282479953765869141e+01 1.486779975891113281e+01 5.478909969329833984e+00 4.234399795532226562e+00 1.459490013122558594e+01 1.777179908752441406e+01 1.437959957122802734e+01 1.054230022430419922e+01 4.976290225982666016e+00 1.541279983520507812e+01 1.441189956665039062e+01 4.309269905090332031e+00 8.451640129089355469e+00 9.868309974670410156e+00 1.829080009460449219e+01 7.026480197906494141e+00 1.600409984588623047e+00 3.118510007858276367e+00 4.730899810791015625e+00 1.206739997863769531e+01 1.690480041503906250e+01 3.110499978065490723e-01 1.492300033569335938e+00 3.675220012664794922e+00 1.085309982299804688e+01 1.417949962615966797e+01 3.286809921264648438e+00 4.839179992675781250e+00 4.107779979705810547e+00 7.864870071411132812e+00 2.031460046768188477e+00 1.131649971008300781e+01 8.530329704284667969e+00 6.741600036621093750e-01 9.108989715576171875e+00 6.846290111541748047e+00 1.234749984741210938e+01 7.031760215759277344e+00 8.667469978332519531e+00 7.035769939422607422e+00 4.982700049877166748e-01 1.772399991750717163e-01 6.043190002441406250e+00 9.855839729309082031e+00 1.152600002288818359e+01 1.096479988098144531e+01 9.533040046691894531e+00 1.342310047149658203e+01 1.253269958496093750e+01 1.124940013885498047e+01 3.099050045013427734e+00 5.773580074310302734e+00 3.447060108184814453e+00 1.761569976806640625e+01 4.498260021209716797e+00 1.074979972839355469e+01 2.220639944076538086e+00 9.992939949035644531e+00 1.154889941215515137e+00 4.348639965057373047e+00 9.722260475158691406e+00 1.116580009460449219e+01 1.927999973297119141e+00 9.187399864196777344e+00 1.418730020523071289e+00 7.011529922485351562e+00 5.788060188293457031e+00 1.251010036468505859e+01 1.087170028686523438e+01 5.160900115966796875e+00 1.369760036468505859e+00 1.240849971771240234e+01 4.365180015563964844e+00 1.516790008544921875e+01 8.905090332031250000e+00 2.637000009417533875e-02 6.083710193634033203e+00 1.443340015411376953e+01 1.338000011444091797e+01 8.422630310058593750e+00 1.117750048637390137e+00 9.062569618225097656e+00 3.631819963455200195e+00 8.775079727172851562e+00 1.284780025482177734e+01 6.162710189819335938e+00 6.327159881591796875e+00 1.179020023345947266e+01 1.441009998321533203e+01 1.058390045166015625e+01 5.489470005035400391e+00 9.922459602355957031e+00 1.823660087585449219e+01 1.295769977569580078e+01 1.045499992370605469e+01 1.794129943847656250e+01 9.330530166625976562e+00 3.920710086822509766e+00 2.596820116043090820e+00 9.678879737854003906e+00 8.641329765319824219e+00 8.369389533996582031e+00 3.177789926528930664e+00 1.275450038909912109e+01 3.790210008621215820e+00 1.177639961242675781e+01 3.175270080566406250e+00 9.431480407714843750e+00 1.287549972534179688e+01 1.595489978790283203e+00 1.179220008850097656e+01 9.526439666748046875e+00 9.061829566955566406e+00 1.093859958648681641e+01 1.580870032310485840e+00 1.523910045623779297e+00 1.053260040283203125e+01 1.432359981536865234e+01 8.855999946594238281e+00 8.747850418090820312e+00 1.007040023803710938e+01 1.547439956665039062e+01 1.476679992675781250e+01 7.931499958038330078e+00 7.218289852142333984e+00 3.215000033378601074e-01 1.477259993553161621e+00 1.036910057067871094e+00 9.585899710655212402e-01 1.487409949302673340e+00 6.253789901733398438e+00 3.293149948120117188e+00 2.498769998550415039e+00 1.480130004882812500e+01 7.038350105285644531e+00 1.135699972510337830e-01 1.236110019683837891e+01 1.639039993286132812e+01 5.610290050506591797e+00 1.433430004119873047e+01 2.632950067520141602e+00 1.284389972686767578e+01 2.730170011520385742e+00 3.550050020217895508e+00 1.411900043487548828e+01 8.290670394897460938e+00 1.594050025939941406e+01 6.757040023803710938e+00 1.287749958038330078e+01 6.102960109710693359e+00 9.991510391235351562e+00 9.718400001525878906e+00 5.732369899749755859e+00 1.131840038299560547e+01 7.734379768371582031e+00 1.551580047607421875e+01 1.498839974403381348e+00 1.331070041656494141e+01 1.079979991912841797e+01 3.296220064163208008e+00 4.043179988861083984e+00 1.114310026168823242e+00 3.507899999618530273e+00 6.891590118408203125e+00 1.266780018806457520e+00 1.058090019226074219e+01 1.516559982299804688e+01 8.296099901199340820e-01 1.385509967803955078e+01 9.730799674987792969e+00 1.347389984130859375e+01 6.826479911804199219e+00 4.528530120849609375e+00 3.459180116653442383e+00 1.021259975433349609e+01 5.888869762420654297e+00 5.705880165100097656e+00 1.073840045928955078e+01 7.862830162048339844e+00 3.861370086669921875e+00 1.413630008697509766e+01 1.339319992065429688e+01 9.633790016174316406e+00 6.576139926910400391e+00 1.635700017213821411e-01 5.503779888153076172e+00 3.415400087833404541e-01 9.243829727172851562e+00 1.148419952392578125e+01 8.159990310668945312e+00 4.989940166473388672e+00 1.639039993286132812e+01 8.675370216369628906e+00 1.353289985656738281e+01 1.075749969482421875e+01 1.357170009613037109e+01 7.808909893035888672e+00 4.255430221557617188e+00 1.471819972991943359e+01 1.844820022583007812e+00 1.360990047454833984e+01 8.412890434265136719e+00 6.952579975128173828e+00 1.289970016479492188e+01 5.065539836883544922e+00 1.017700004577636719e+01 1.494639968872070312e+01 1.549659967422485352e+00 2.914880037307739258e+00 1.753910064697265625e+01 1.133199977874755859e+01 1.253730010986328125e+01 6.684959888458251953e+00 9.000060081481933594e+00 1.384619998931884766e+01 7.591899871826171875e+00 9.921879768371582031e+00 2.819829940795898438e+00 1.064200028777122498e-01 9.734530448913574219e+00 5.992479801177978516e+00 1.052490043640136719e+01 4.919300079345703125e+00 1.228310012817382812e+01 8.238730430603027344e+00 1.587299942970275879e+00 9.081430435180664062e+00 3.713579893112182617e+00 7.651030063629150391e+00 3.442499935626983643e-01 1.226049995422363281e+01 3.011929988861083984e+00 7.890810012817382812e+00 7.883460044860839844e+00 2.620460033416748047e+00 8.242500305175781250e+00 1.716530036926269531e+01 1.302110004425048828e+01 5.240670204162597656e+00 1.087150001525878906e+01 7.516930103302001953e+00 1.085459995269775391e+01 4.325019836425781250e+00 8.695739746093750000e+00 3.211179971694946289e+00 1.153009986877441406e+01 9.860759735107421875e+00 1.199559974670410156e+01 1.290180015563964844e+01 2.375260114669799805e+00 5.269169807434082031e+00 7.942550182342529297e+00 7.957199811935424805e-01 1.462180042266845703e+01 1.351169967651367188e+01 1.362349987030029297e+00 4.349909782409667969e+00 5.403510093688964844e+00 3.633470058441162109e+00 2.747800111770629883e+00 3.548219919204711914e+00 3.878639936447143555e+00 1.378720045089721680e+00 5.872700214385986328e+00 1.375469970703125000e+01 1.138739967346191406e+01 7.831210136413574219e+00 5.672729969024658203e+00 5.056580066680908203e+00 9.708769798278808594e+00 3.497760057449340820e+00 1.425269985198974609e+01 1.405459976196289062e+01 3.414989948272705078e+00 8.432789802551269531e+00 9.715959548950195312e+00 1.231739997863769531e+01 3.482700109481811523e+00 1.546049976348876953e+01 6.527430057525634766e+00 6.202459812164306641e+00 9.557359695434570312e+00 3.452650070190429688e+00 3.247599899768829346e-01 1.402670001983642578e+01 4.322700023651123047e+00 7.341919898986816406e+00 1.012740039825439453e+01 1.341860008239746094e+01 3.706020116806030273e+00 1.646409988403320312e+01 3.278729915618896484e+00 1.005799961090087891e+01 1.320699977874755859e+01 2.228650093078613281e+00 5.351689815521240234e+00 1.466549968719482422e+01 5.780039787292480469e+00 8.345410346984863281e+00 3.813669919967651367e+00 8.810339927673339844e+00 1.415100002288818359e+01 1.493420004844665527e+00 2.007999897003173828e+00 1.037930011749267578e+01 1.240139961242675781e+01 2.720210075378417969e+00 4.377210140228271484e+00 1.359189987182617188e+01 5.021100044250488281e+00 9.628849983215332031e+00 3.478929996490478516e+00 7.423890113830566406e+00 1.383930015563964844e+01 2.186670064926147461e+00 1.215190029144287109e+01 3.916759967803955078e+00 2.054069995880126953e+00 1.330319976806640625e+01 5.299900054931640625e+00 6.432179927825927734e+00 1.309910011291503906e+01 5.923900008201599121e-01 7.873419761657714844e+00 2.414309978485107422e+00 9.514089584350585938e+00 1.131900027394294739e-01 1.290530014038085938e+01 5.164869785308837891e+00 1.582859992980957031e+00 9.683679580688476562e+00 7.190949916839599609e+00 1.048020005226135254e+00 1.207250022888183594e+01 1.693770051002502441e+00 8.041790008544921875e+00 1.720919966697692871e+00 1.076439952850341797e+01 7.944200038909912109e-01 9.822409629821777344e+00 2.721509933471679688e+00 1.265299987792968750e+01 1.074269962310791016e+01 1.242269992828369141e+01 1.581610012054443359e+01 3.251099884510040283e-01 1.332699966430664062e+01 8.645099997520446777e-01 9.104519844055175781e+00 9.668729782104492188e+00 1.400450038909912109e+01 1.131270027160644531e+01 2.140990018844604492e+00 1.305360031127929688e+01 1.195090007781982422e+01 1.237569999694824219e+01 1.500990009307861328e+01 1.787410020828247070e+00 1.325209999084472656e+01 4.392699897289276123e-01 8.429690361022949219e+00 1.099390029907226562e+01 1.390400028228759766e+01 6.440440177917480469e+00 3.904520034790039062e+00 1.413829994201660156e+01 6.149829864501953125e+00 6.052830219268798828e+00 2.719520092010498047e+00 1.028800010681152344e+01 3.249310016632080078e+00 1.480840015411376953e+01 5.913070201873779297e+00 2.222490072250366211e+00 9.560750007629394531e+00 5.000209808349609375e+00 3.917570114135742188e+00 1.464960002899169922e+01 6.543019771575927734e+00 7.291210174560546875e+00 1.874850034713745117e+00 9.441659927368164062e+00 4.126900196075439453e+00 1.560079956054687500e+01 4.829349994659423828e+00 1.107750058174133301e+00 9.372090339660644531e+00 7.493159770965576172e+00 5.362530231475830078e+00 6.384419918060302734e+00 1.237199974060058594e+01 1.362170028686523438e+01 1.310280036926269531e+01 1.420499992370605469e+01 1.226900005340576172e+01 1.333580017089843750e+01 5.801500082015991211e-01 2.785510063171386719e+00 1.322690010070800781e+01 7.088950157165527344e+00 4.402510166168212891e+00 5.332389831542968750e+00 1.089089965820312500e+01 1.444449996948242188e+01 1.398919963836669922e+01 1.496990013122558594e+01 1.348880004882812500e+01 1.359809970855712891e+01 1.622310042381286621e+00 2.425950050354003906e+00 1.215450000762939453e+01 1.209319972991943359e+01 1.302550029754638672e+01 1.727149963378906250e+01 2.172389984130859375e+00 1.211989974975585938e+01 5.155519962310791016e+00 1.403759956359863281e+01 1.854850053787231445e+00 7.175999879837036133e-01 1.083889961242675781e+01 6.214360237121582031e+00 1.417969942092895508e+00 1.284910011291503906e+01 1.215289974212646484e+01 1.822800064086914062e+01 8.473700284957885742e-01 1.267840003967285156e+01 5.841149806976318359e+00 1.106250000000000000e+01 6.829870223999023438e+00 1.525710010528564453e+01 1.420069980621337891e+01 6.689290046691894531e+00 2.303080081939697266e+00 2.578579902648925781e+00 6.585259914398193359e+00 1.293270015716552734e+01 1.389089965820312500e+01 1.408030033111572266e+01 9.620299935340881348e-01 7.391119956970214844e+00 5.832870006561279297e+00 1.258279991149902344e+01 7.502779960632324219e+00 1.521969985961914062e+01 1.377470016479492188e+01 2.793809890747070312e+00 7.298409938812255859e+00 1.161450004577636719e+01 1.438869953155517578e+01 1.538809967041015625e+01 1.489349961280822754e+00 6.332419872283935547e+00 5.223929882049560547e+00 1.170569992065429688e+01 7.166019916534423828e+00 3.505000099539756775e-02 1.538449954986572266e+01 1.784379959106445312e+00 3.506319999694824219e+00 5.098629951477050781e+00 4.270090103149414062e+00 1.305119991302490234e+01 1.183110046386718750e+01 1.502680015563964844e+01 3.277750015258789062e+00 9.156559944152832031e+00 6.744729995727539062e+00 7.575930118560791016e+00 8.096469879150390625e+00 1.275730013847351074e+00 4.955480098724365234e+00 9.589650154113769531e+00 3.344559907913208008e+00 1.197509956359863281e+01 1.267980003356933594e+01 2.918329954147338867e+00 1.535700035095214844e+01 6.364900112152099609e+00 8.369139671325683594e+00 7.261769771575927734e+00 7.971290111541748047e+00 5.605700016021728516e-01 1.534270000457763672e+01 7.623939990997314453e+00 5.558790206909179688e+00 9.090780258178710938e+00 6.129330158233642578e+00 1.510519981384277344e+01 3.979419946670532227e+00 5.495659828186035156e+00 1.219849967956542969e+01 1.464260005950927734e+01 4.790309906005859375e+00 1.494340038299560547e+01 1.474559974670410156e+01 8.638620376586914062e+00 5.427810192108154297e+00 1.009519958496093750e+01 7.370049953460693359e+00 1.435070037841796875e+01 3.278889894485473633e+00 6.714489936828613281e+00 1.248760032653808594e+01 1.782999932765960693e-02 6.083310127258300781e+00 3.369539976119995117e+00 1.510219955444335938e+01 1.767020034790039062e+01 1.385529994964599609e+01 1.120419979095458984e+01 4.475029945373535156e+00 1.517179965972900391e+01 1.421899986267089844e+01 3.355139970779418945e+00 8.902119636535644531e+00 1.060869979858398438e+01 3.456499874591827393e-01 4.098770141601562500e+00 1.366609954833984375e+01 1.751090049743652344e+01 1.399870014190673828e+01 1.065349960327148438e+01 5.902560234069824219e+00 1.454039955139160156e+01 1.438899993896484375e+01 4.758979797363281250e+00 9.114239692687988281e+00 9.771309852600097656e+00 1.762709999084472656e+01 6.686590194702148438e+00 1.034569978713989258e+00 3.803270101547241211e+00 4.598380088806152344e+00 1.158920001983642578e+01 1.612140083312988281e+01 1.546523952484130859e+01 5.726900100708007812e-01 3.656800031661987305e+00 1.018290042877197266e+01 1.347799968719482422e+01 3.108069896697998047e+00 9.041009902954101562e+00 4.478849887847900391e+00 8.350919723510742188e+00 5.594409942626953125e+00 1.248320007324218750e+01 1.672480010986328125e+01 1.527200031280517578e+01 1.875880002975463867e+00 4.422880172729492188e+00 1.091950035095214844e+01 1.483839988708496094e+01 2.586639881134033203e+00 5.524590015411376953e+00 4.248129844665527344e+00 7.168379783630371094e+00 1.872539997100830078e+00 1.208370018005371094e+01 9.202449798583984375e+00 3.109300136566162109e-01 9.425430297851562500e+00 5.948110103607177734e+00 1.277939987182617188e+01 6.837120056152343750e+00 7.748869895935058594e+00 4.741479873657226562e+00 3.173249959945678711e+00 8.161729812622070312e+00 1.825019955635070801e+00 1.178530025482177734e+01 7.718510150909423828e+00 1.108809947967529297e+00 9.935569763183593750e+00 7.132599830627441406e+00 5.238910198211669922e+00 1.479699993133544922e+01 1.801810026168823242e+00 6.690450191497802734e+00 1.395580053329467773e+00 1.842110061645507812e+01 6.737969875335693359e+00 9.259460449218750000e+00 1.137769985198974609e+01 1.088529968261718750e+01 1.054049968719482422e+01 1.336139965057373047e+01 1.243150043487548828e+01 1.217010021209716797e+01 2.987099885940551758e+00 7.064680099487304688e+00 1.053560018539428711e+00 2.365609884262084961e+00 5.282899856567382812e+00 9.427430152893066406e+00 1.104880046844482422e+01 1.067500019073486328e+01 8.998749732971191406e+00 1.259640026092529297e+01 1.161019992828369141e+01 1.100020027160644531e+01 2.705640077590942383e+00 5.244070053100585938e+00 3.505350112915039062e+00 1.669319915771484375e+01 3.653429985046386719e+00 1.050879955291748047e+01 1.801650047302246094e+00 9.980549812316894531e+00 2.142399996519088745e-01 4.268300056457519531e+00 9.311380386352539062e+00 1.204370021820068359e+01 1.700119972229003906e+00 4.988820075988769531e+00 3.511199951171875000e+00 1.822369956970214844e+01 5.153470039367675781e+00 1.064770030975341797e+01 1.529780030250549316e+00 9.081410408020019531e+00 1.469280004501342773e+00 4.096519947052001953e+00 9.106929779052734375e+00 1.087460041046142578e+01 2.679699897766113281e+00 1.473089981079101562e+01 1.867679953575134277e+00 8.427470207214355469e+00 6.115399837493896484e+00 1.164920043945312500e+01 1.114430046081542969e+01 4.771309852600097656e+00 1.628299951553344727e+00 1.154920005798339844e+01 3.855269908905029297e+00 1.493449974060058594e+01 8.134249687194824219e+00 9.494210243225097656e+00 5.279499888420104980e-01 7.381919860839843750e+00 6.611820220947265625e+00 1.300559997558593750e+01 1.064400005340576172e+01 5.017179965972900391e+00 2.112709999084472656e+00 1.289850044250488281e+01 4.948560237884521484e+00 1.447420024871826172e+01 9.222579956054687500e+00 1.496090030670166016e+01 5.286719799041748047e+00 1.456200027465820312e+01 1.254399967193603516e+01 8.009400367736816406e+00 1.263159990310668945e+00 1.061159992218017578e+01 3.460210084915161133e+00 1.841834068298339844e+01 1.322599983215332031e+01 6.555359840393066406e+00 5.491499900817871094e+00 1.031299978494644165e-01 6.148859977722167969e+00 1.345740032196044922e+01 1.317000007629394531e+01 9.286179542541503906e+00 1.595880031585693359e+00 9.069519996643066406e+00 2.963030099868774414e+00 8.035229682922363281e+00 1.399310016632080078e+01 1.218000030517578125e+01 8.417810440063476562e+00 1.144939994812011719e+01 1.484770011901855469e+01 9.815850257873535156e+00 6.452209949493408203e+00 1.003979969024658203e+01 1.809059906005859375e+01 1.289159965515136719e+01 7.766399860382080078e+00 8.952839851379394531e+00 9.977310180664062500e+00 4.712399959564208984e+00 2.646579980850219727e+00 1.094219970703125000e+01 1.420610046386718750e+01 1.107820034027099609e+01 5.064909934997558594e+00 1.073260021209716797e+01 1.790169906616210938e+01 1.286590003967285156e+01 1.026420021057128906e+01 1.695809936523437500e+01 9.726110458374023438e+00 3.362459897994995117e+00 1.896960020065307617e+00 1.048410034179687500e+01 8.056220054626464844e+00 8.303039550781250000e+00 3.532059907913208008e+00 1.204909992218017578e+01 3.245860099792480469e+00 1.232919979095458984e+01 3.867860078811645508e+00 9.882390022277832031e+00 1.232439994812011719e+01 2.086560010910034180e+00 1.113339996337890625e+01 9.773130416870117188e+00 9.106590270996093750e+00 7.457560062408447266e+00 2.459280014038085938e+00 1.309070014953613281e+01 3.208129882812500000e+00 9.503120422363281250e+00 1.473790049552917480e+00 6.105249881744384766e+00 1.257950019836425781e+01 6.178699731826782227e-01 1.166149997711181641e+01 9.545700073242187500e+00 1.005430030822753906e+01 1.104500007629394531e+01 1.640949964523315430e+00 7.019699811935424805e-01 9.968680381774902344e+00 1.472739982604980469e+01 9.359430313110351562e+00 9.543950080871582031e+00 9.107819557189941406e+00 1.527579975128173828e+01 1.500479984283447266e+01 9.550419807434082031e+00 8.809659957885742188e+00 9.993350028991699219e+00 1.963960051536560059e+00 2.201900005340576172e+00 9.997369766235351562e+00 1.506859970092773438e+01 8.646409988403320312e+00 8.135680198669433594e+00 1.003499984741210938e+01 8.100399971008300781e-01 1.417520046234130859e+01 8.177579879760742188e+00 6.625850200653076172e+00 1.805769920349121094e+01 1.223899960517883301e+00 1.022959947586059570e+00 1.931409955024719238e+00 1.628800034523010254e+00 7.173480033874511719e+00 3.688669919967651367e+00 2.362329959869384766e+00 1.393439960479736328e+01 6.628680229187011719e+00 8.185810089111328125e+00 8.226110458374023438e+00 5.466999858617782593e-02 1.035230040550231934e+00 2.811099886894226074e-01 6.396499872207641602e-01 1.537800025939941406e+01 5.668660163879394531e+00 2.065609931945800781e+00 1.352050018310546875e+01 1.862130045890808105e+00 2.186219930648803711e+00 1.482040023803710938e+01 1.204520034790039062e+01 1.685880088806152344e+01 4.876299858093261719e+00 1.383580017089843750e+01 3.096570014953613281e+00 1.209770011901855469e+01 2.218280076980590820e+00 3.915630102157592773e+00 1.449829959869384766e+01 7.460259914398193359e+00 1.554940032958984375e+01 6.063600182533264160e-01 1.165219974517822266e+01 1.588959980010986328e+01 1.006120014190673828e+01 5.013179779052734375e+00 5.459030151367187500e+00 1.330910015106201172e+01 3.102659940719604492e+00 4.317299842834472656e+00 1.315610027313232422e+01 8.064729690551757812e+00 1.603930091857910156e+01 6.900829792022705078e+00 1.203709983825683594e+01 5.650750160217285156e+00 1.039220046997070312e+01 9.290140151977539062e+00 4.944960117340087891e+00 1.091250038146972656e+01 3.530080080032348633e+00 9.151160240173339844e+00 1.075000047683715820e+00 1.370600032806396484e+01 1.158559989929199219e+01 6.077730178833007812e+00 1.273729991912841797e+01 6.808090209960937500e+00 1.043620014190673828e+01 1.055160045623779297e+01 5.822090148925781250e+00 8.576400279998779297e-01 4.375939846038818359e+00 1.104679965972900391e+01 2.429630041122436523e+00 1.317039966583251953e+01 1.119970035552978516e+01 3.483010053634643555e+00 4.995520114898681641e+00 1.324519991874694824e+00 4.391809940338134766e+00 6.936160087585449219e+00 1.641659975051879883e+00 1.127229976654052734e+01 1.460079956054687500e+01 3.534600138664245605e-01 1.406960010528564453e+01 9.198169708251953125e+00 1.430169963836669922e+01 2.864880084991455078e+00 3.952589988708496094e+00 2.268400043249130249e-01 2.857800006866455078e+00 6.768449783325195312e+00 1.980810046195983887e+00 1.084459972381591797e+01 6.465299725532531738e-01 7.695099711418151855e-01 1.288379955291748047e+01 9.556489944458007812e+00 1.330519962310791016e+01 7.749660015106201172e+00 4.284770011901855469e+00 3.227289915084838867e+00 1.114350032806396484e+01 5.984940052032470703e+00 6.083310127258300781e+00 1.043150043487548828e+01 7.661019802093505859e+00 2.844130039215087891e+00 1.320709991455078125e+01 1.353870010375976562e+01 1.007629966735839844e+01 6.331900119781494141e+00 3.758219957351684570e+00 3.490609884262084961e+00 4.170629978179931641e+00 1.169289970397949219e+01 8.374739646911621094e+00 1.030000019073486328e+01 7.168350219726562500e+00 4.494840145111083984e+00 1.470600032806396484e+01 1.297290039062500000e+01 1.029259967803955078e+01 6.333109855651855469e+00 1.543130016326904297e+01 1.831250000000000000e+01 8.404600024223327637e-01 8.412039756774902344e+00 1.172099971771240234e+01 7.577760219573974609e+00 5.518149852752685547e+00 1.578090000152587891e+01 8.231820106506347656e+00 1.430010032653808594e+01 1.119309997558593750e+01 7.200520038604736328e+00 6.367300152778625488e-01 6.129010200500488281e+00 1.515709972381591797e+01 9.388159751892089844e+00 1.217870044708251953e+01 7.486979961395263672e+00 4.430570125579833984e+00 1.674130058288574219e+01 8.742159843444824219e+00 1.370160007476806641e+01 9.797360420227050781e+00 1.371360015869140625e+01 8.709650039672851562e+00 4.594999790191650391e+00 1.428810024261474609e+01 2.276089906692504883e+00 1.445699977874755859e+01 9.008290290832519531e+00 7.076759815216064453e+00 1.215929985046386719e+01 5.051219940185546875e+00 9.639080047607421875e+00 1.578020000457763672e+01 1.264859962463378906e+01 7.794859886169433594e+00 3.955250024795532227e+00 1.409720039367675781e+01 1.716930031776428223e+00 1.292780017852783203e+01 7.966750144958496094e+00 7.871419906616210938e+00 1.306540012359619141e+01 5.942500114440917969e+00 9.995329856872558594e+00 1.453660011291503906e+01 1.592569947242736816e+00 2.211050033569335938e+00 1.818819999694824219e+01 1.202029991149902344e+01 1.211040019989013672e+01 7.250659942626953125e+00 9.811739921569824219e+00 1.328699970245361328e+01 7.334969997406005859e+00 1.550760030746459961e+00 5.551670074462890625e+00 4.012310028076171875e+00 1.600039958953857422e+00 2.324059963226318359e+00 1.676429939270019531e+01 1.191460037231445312e+01 1.309599971771240234e+01 6.100389957427978516e+00 8.246069908142089844e+00 1.330449962615966797e+01 7.193779945373535156e+00 9.075070381164550781e+00 3.102180004119873047e+00 1.826070022583007812e+01 9.760680198669433594e+00 5.076739788055419922e+00 1.035700035095214844e+01 5.406559944152832031e+00 1.209799957275390625e+01 9.081119537353515625e+00 6.928600072860717773e-01 9.477470397949218750e+00 3.866100072860717773e+00 8.105489730834960938e+00 1.195340037345886230e+00 1.203719997406005859e+01 1.043970012664794922e+01 6.431029796600341797e+00 1.006540012359619141e+01 6.666210174560546875e+00 1.469849967956542969e+01 5.714379787445068359e+00 1.637670040130615234e+00 9.133469581604003906e+00 2.698600053787231445e+00 6.707049846649169922e+00 7.409499883651733398e-01 1.222770023345947266e+01 2.333930015563964844e+00 8.322330474853515625e+00 7.272930145263671875e+00 3.263400077819824219e+00 7.748740196228027344e+00 1.777120018005371094e+01 1.292669963836669922e+01 5.807710170745849609e+00 1.001729965209960938e+01 6.761010169982910156e+00 1.020149993896484375e+01 4.232910156250000000e+00 3.933190107345581055e+00 8.210650444030761719e+00 7.487050056457519531e+00 1.715929985046386719e+00 7.902770042419433594e+00 1.745210075378417969e+01 1.397259998321533203e+01 4.911950111389160156e+00 1.084790039062500000e+01 8.212639808654785156e+00 1.043099975585937500e+01 4.892739772796630859e+00 8.707940101623535156e+00 3.369620084762573242e+00 1.053139972686767578e+01 9.236379623413085938e+00 1.206869983673095703e+01 1.214750003814697266e+01 2.472100019454956055e+00 6.266930103302001953e+00 7.821489810943603516e+00 1.638900041580200195e+00 1.474030017852783203e+01 1.399629974365234375e+01 8.048100471496582031e+00 3.882630109786987305e+00 1.187119960784912109e+01 1.055939960479736328e+01 1.285179996490478516e+01 1.308110046386718750e+01 3.376339912414550781e+00 5.015989780426025391e+00 7.939839839935302734e+00 3.008500039577484131e-01 1.545240020751953125e+01 1.356429958343505859e+01 1.139340019226074219e+01 8.235469818115234375e+00 1.468150043487548828e+01 3.830590009689331055e+00 3.319030046463012695e+00 2.776289939880371094e+00 3.834949970245361328e+00 1.927309989929199219e+00 5.057680130004882812e+00 1.336369991302490234e+01 9.662739753723144531e+00 1.825399971008300781e+01 1.706799983978271484e+00 4.656179904937744141e+00 6.323460102081298828e+00 2.757440090179443359e+00 2.447139978408813477e+00 3.269710063934326172e+00 4.728779792785644531e+00 8.609799742698669434e-01 5.822879791259765625e+00 1.377429962158203125e+01 1.058710002899169922e+01 8.429309844970703125e+00