ITEM: TIMESTEP
0
ITEM: NUMBER OF ATOMS
288
ITEM: BOX BOUNDS pp pp pp
-3.6475388986936075e-01 1.5372285989869241e+01
-3.1588456839728618e-01 1.3312724168398045e+01
-3.4288238441565788e-01 1.4450527384416635e+01
ITEM: ATOMS id type x y z
237 2 1.76729 0.560418 -0.333396
8 1 2.29117 -0.0391255 2.80015
124 2 2.39865 -0.110574 1.82676
77 1 2.31217 -0.215444 -0.0983521
110 2 1.48104 3.51481 0.0112464
119 2 5.49455 1.89776 1.05627
57 1 6.142 1.83933 2.79706
6 1 5.33304 2.17616 0.12599
219 2 7.13389 1.98835 2.92228
104 2 6.08088 0.973895 3.28118
182 2 9.70937 -0.0299832 1.20313
163 2 9.23291 0.771288 -0.177502
29 1 9.59695 -0.081951 0.205417
52 1 10.0242 4.16751 0.0764213
226 2 10.2096 4.18039 1.87841
56 1 10.1056 -0.264126 2.89267
221 2 11.1036 -0.292719 3.18212
126 2 14.2283 1.89218 2.11097
54 1 13.6139 2.03561 0.482342
234 2 13.1665 1.2973 0.0569705
233 2 13.3195 2.83078 -0.0797775
9 1 14.2313 1.77385 3.07265
99 2 15.2192 1.81653 3.28859
109 2 2.5133 4.48702 2.05147
7 1 2.60252 4.45857 3.05415
4 1 2.11669 4.23244 0.363876
111 2 1.78224 5.11717 0.045027
174 2 1.88679 7.99281 3.11389
30 1 2.39633 8.74837 0.285644
81 1 2.55049 8.72511 2.95205
165 2 1.4345 7.38933 -0.0814582
113 2 0.0450908 6.77116 -0.205066
231 2 6.30765 6.45957 1.76275
80 1 6.38094 6.48284 2.76669
53 1 6.24417 6.70202 -0.0194072
232 2 5.71102 7.55031 -0.0532983
225 2 6.04943 5.61885 3.14574
55 1 10.2053 4.25888 2.82838
235 2 9.62398 5.0352 3.11229
269 2 7.94839 6.32412 3.32199
188 2 9.25819 7.27065 3.28947
228 2 9.69829 5.08742 -0.256061
33 1 10.3554 8.7415 2.9332
114 2 13.8182 6.3896 1.18152
5 1 13.7911 6.5178 0.215961
32 1 13.9729 6.24902 2.91829
106 2 13.307 5.46602 3.09991
173 2 14.8527 6.01169 3.23784
116 2 13.4916 5.63416 -0.165431
185 2 2.58983 8.77305 1.25925
186 2 3.24824 8.84917 -0.188397
123 2 1.6103 12.8801 3.04443
184 2 1.51397 10.3625 -0.138271
271 2 6.26485 10.9749 1.14739
79 1 6.32537 10.8085 2.77571
76 1 6.05371 11.0847 0.167132
265 2 5.8401 10.0315 3.14435
222 2 5.81633 11.558 3.24684
274 2 6.95187 11.2062 -0.33485
189 2 10.6946 8.79107 1.98963
78 1 10.3199 8.95209 0.0492859
276 2 9.83902 9.77399 -0.164912
236 2 9.78665 12.476 3.17245
178 2 14.0036 10.9918 0.958941
31 1 14.1351 10.978 2.92857
28 1 13.9573 11.0664 -0.0125397
102 2 13.5525 11.7155 3.15121
181 2 14.9015 11.1557 -0.274047
97 2 1.99394 3.75515 3.3711
98 2 1.55411 1.45214 3.364
1 1 1.04863 2.16397 3.86955
100 2 1.13782 1.83647 4.83923
89 1 0.73046 1.65675 6.52334
239 2 1.30187 2.35866 6.94545
261 2 1.214 0.809846 6.70549
224 2 5.27243 3.43137 3.42225
278 2 5.61445 0.321732 6.89408
135 2 5.93091 2.60369 6.93823
217 2 9.23381 2.60479 3.49136
218 2 9.22282 1.06942 3.4504
155 2 8.0108 2.09129 6.81572
49 1 8.7227 1.86692 3.7707
220 2 8.85545 2.08576 5.51207
58 1 8.94147 2.09495 6.49658
128 2 9.48206 0.406044 7.03399
125 2 13.2267 0.572451 3.48609
105 2 13.206 3.09927 3.63759
154 2 13.1563 0.44987 6.80074
193 2 11.6146 -0.222409 6.68152
50 1 12.616 -0.248629 3.66881
223 2 12.5065 -0.218961 4.70124
245 2 13.2658 3.29426 6.78411
3 1 12.6616 3.94214 3.79497
107 2 11.7164 3.78303 3.39946
60 1 12.8428 4.10322 6.40021
108 2 12.7706 3.95682 5.41584
121 2 1.90102 5.79163 3.61625
26 1 1.1911 6.55583 3.72351
132 2 0.836894 6.50706 4.63552
11 1 1.07259 6.62128 6.46525
130 2 1.51573 5.76027 6.69771
131 2 0.252802 6.55563 7.00426
133 2 2.30484 7.84509 6.78912
122 2 4.14881 4.47341 3.74717
51 1 5.13611 4.24057 3.92302
136 2 5.18131 4.25007 5.65003
267 2 4.03509 8.59992 3.47573
12 1 5.02185 4.27231 6.64087
266 2 5.45265 7.97613 3.37713
137 2 5.41078 5.11888 6.99176
73 1 4.96075 8.69585 3.82335
268 2 5.01562 8.74212 5.43238
241 2 7.21897 6.55727 7.03536
171 2 11.1869 8.6233 3.52553
74 1 8.9211 6.39727 3.6129
59 1 9.11268 6.61888 6.28302
242 2 9.18543 6.4135 5.33986
240 2 9.61199 5.82613 6.6775
243 2 9.90659 8.08961 6.94274
191 2 11.9754 8.4899 7.01221
170 2 13.4932 7.85635 3.72505
34 1 12.9531 8.60164 6.81851
25 1 13.2209 8.65703 4.14817
172 2 13.2002 8.63382 5.18599
153 2 13.9048 5.55298 7.05362
270 2 2.01707 9.43327 3.36959
187 2 0.338691 11.0506 3.64058
75 1 1.22778 11.0748 4.07821
196 2 1.10117 11.1706 5.06689
36 1 1.02837 10.9733 6.6456
194 2 0.112999 11.2096 6.99237
197 2 1.58628 11.7967 6.87933
127 2 3.33601 13.1081 6.82477
195 2 1.95722 9.42997 6.82446
101 2 4.30164 13.2973 3.41208
209 2 4.1574 8.8736 6.77126
82 1 5.07424 8.80961 6.42167
83 1 5.11274 13.1079 6.58979
2 1 5.099 12.9984 3.92716
103 2 4.89609 13.0568 4.84707
279 2 5.65077 12.3335 6.93646
176 2 7.90503 10.812 3.47323
175 2 9.32354 10.1432 3.51654
27 1 8.81205 10.8817 3.86907
177 2 8.8526 10.872 5.5694
84 1 8.84518 11.0854 6.57146
208 2 9.14721 12.0557 6.75604
281 2 9.78337 9.63587 6.95554
169 2 13.8819 10.2808 3.58292
35 1 12.5557 13.3031 6.44045
192 2 13.4013 11.8326 6.93315
134 2 3.32182 3.92393 7.08284
20 1 2.12394 -0.271223 9.93694
150 2 2.44255 4.01702 8.52253
16 1 2.39578 3.83406 7.50071
19 1 2.22066 4.09546 10.3591
158 2 3.14166 3.9251 10.616
18 1 6.3904 1.85336 7.3528
156 2 6.35703 1.90126 8.38941
69 1 6.08375 1.95885 10.093
253 2 5.68087 2.81506 10.4549
248 2 6.97923 1.99838 10.5073
143 2 5.21279 0.529372 10.7196
238 2 9.57922 3.73315 7.14079
160 2 9.89802 -0.253858 8.36021
68 1 9.95191 -0.236506 10.2093
258 2 15.0621 1.62888 7.06597
66 1 14.0647 1.62175 7.32689
162 2 13.9901 1.63494 8.34718
21 1 14.0202 1.8253 9.95791
146 2 13.4307 2.60419 10.2372
140 2 14.8366 1.96644 10.5071
42 1 2.6309 8.73282 7.13466
284 2 2.442 8.63561 9.10882
157 2 1.77651 4.91682 10.7212
256 2 5.90882 7.36607 7.09368
65 1 6.32028 6.58701 7.46612
257 2 6.24997 6.77052 9.30291
92 1 6.1829 6.68733 10.2962
286 2 7.08401 6.66445 10.6822
282 2 5.45792 8.16653 10.6935
67 1 10.0795 4.5611 10.516
255 2 9.98142 4.44928 9.52105
64 1 10.1724 4.43153 7.56921
259 2 9.40504 5.32856 10.6373
244 2 11.0344 4.27558 7.08471
151 2 13.3017 7.72989 7.14684
17 1 14.2564 6.38222 7.44656
152 2 14.3165 6.33935 8.44379
44 1 14.0342 6.18482 10.2158
199 2 13.6172 7.06653 10.4815
202 2 14.9392 6.26955 10.6656
142 2 3.06566 13.2348 10.2766
129 2 2.30477 13.2536 8.10848
10 1 2.35029 13.0118 7.11562
93 1 2.29984 8.77284 10.0921
210 2 1.7249 9.54796 10.3497
159 2 1.68157 12.514 10.2915
287 2 -0.099551 11.085 10.6396
277 2 5.90444 10.1033 7.14351
280 2 7.17293 11.002 7.16585
88 1 6.27924 10.9736 7.50269
288 2 6.10157 10.9408 9.1266
91 1 5.93139 11.0344 10.1134
251 2 5.53225 10.2255 10.4543
145 2 5.15135 12.5886 10.656
41 1 9.83887 13.208 7.41919
213 2 10.0669 8.94582 9.12354
45 1 10.0853 8.79092 10.117
200 2 11.0058 9.00568 10.3545
90 1 10.3809 8.88031 7.28306
260 2 9.4836 12.6273 10.6267
250 2 10.8384 13.2488 10.5458
190 2 13.5401 10.2294 7.12154
40 1 13.9619 11.1109 7.29446
207 2 13.9321 11.1432 9.13512
43 1 13.9655 11.0278 10.1462
211 2 13.4697 11.8102 10.5958
198 2 13.1708 9.62075 10.509
164 2 -0.159146 2.0661 14.4443
262 2 3.24304 -0.174816 14.2974
138 2 1.21343 2.87812 10.9943
139 2 1.11769 1.32829 10.8061
13 1 0.62529 2.06889 11.1539
22 1 0.666475 1.84892 13.9732
141 2 0.505852 1.8685 13.0006
118 2 5.16884 1.34651 14.415
117 2 4.95928 3.6292 14.3422
168 2 4.86489 4.21481 12.1203
14 1 4.68448 -0.241853 10.9912
63 1 4.97896 4.08801 11.1509
95 1 4.89953 -0.179717 13.7851
120 2 7.45843 2.31058 14.2572
227 2 9.47061 3.42219 14.4417
246 2 9.21327 3.04329 11.0413
247 2 9.33799 1.4487 11.0024
61 1 8.6552 2.19718 11.098
70 1 8.32086 2.08041 13.8428
249 2 8.36988 2.0847 12.8717
161 2 12.9127 0.445963 10.8079
15 1 12.7066 3.9978 11.121
72 1 12.6856 4.09688 13.9245
149 2 12.64 4.14539 12.9068
229 2 11.7875 4.20645 14.3621
144 2 11.591 -0.191955 14.3237
203 2 1.48046 7.4858 10.9856
38 1 1.1331 6.59421 11.2683
23 1 0.977046 6.61699 14.2636
166 2 1.138 6.66747 12.2817
112 2 3.78834 4.54764 14.0454
24 1 4.71595 4.38573 13.785
167 2 5.63619 6.08733 14.3663
254 2 5.33244 4.99119 10.9185
263 2 9.34604 7.53206 14.1769
212 2 9.27884 7.53962 10.894
230 2 8.0817 6.56899 14.1758
86 1 8.72467 6.76046 11.2702
71 1 9.06719 6.63703 13.8979
264 2 8.72963 6.78319 12.2854
148 2 11.7617 4.29127 10.8631
147 2 13.3494 4.77436 10.9287
115 2 13.0161 7.91799 13.9965
37 1 12.8231 8.75355 10.7823
201 2 12.8555 8.57777 11.7575
46 1 12.6251 8.73878 13.6197
87 1 0.871023 11.091 10.853
215 2 1.42284 11.9097 14.2797
48 1 0.946202 11.0427 14.1417
216 2 0.883366 11.1106 11.8297
273 2 4.97662 13.3056 12.8188
285 2 5.00443 8.78695 12.9105
272 2 5.27198 9.74783 14.2568
283 2 3.9986 8.84643 11.0442
94 1 4.84349 8.92319 13.8747
85 1 5.02198 8.89977 11.1851
275 2 5.24858 12.5903 14.1453
214 2 11.1946 8.9916 14.3695
205 2 7.78736 11.0128 11.0364
204 2 9.19583 10.3415 10.8553
183 2 9.10104 11.9583 14.3234
39 1 8.73312 11.0562 11.2983
96 1 8.61085 11.1513 14.0504
206 2 8.8247 10.99 13.0672
47 1 12.4815 13.2968 13.9902
62 1 12.5827 13.2096 11.1034
252 2 12.5232 13.2777 12.153
180 2 12.8873 12.4669 14.3623
179 2 13.3172 9.40907 13.8837
ITEM: TIMESTEP
200
ITEM: NUMBER OF ATOMS
288
ITEM: BOX BOUNDS pp pp pp
-3.3167090432608415e-01 1.5339203004325942e+01
-2.8723400455174453e-01 1.3284073604552487e+01
-3.1178313288817705e-01 1.4419428132889172e+01
ITEM: ATOMS id type x y z
237 2 1.59746 0.537896 14.1914
8 1 2.33686 -0.171554 2.67757
124 2 1.97878 -0.25352 1.75261
77 1 2.00024 -0.281511 -0.188708
110 2 1.71314 3.49774 -0.0898246
119 2 6.05878 2.28051 1.22922
57 1 6.0409 1.939 3.02825
6 1 6.2047 2.40591 0.213694
219 2 7.03319 1.89589 3.29807
104 2 5.65622 1.04133 3.15502
182 2 9.89524 -0.129888 0.89634
163 2 9.37086 0.70917 14.4005
29 1 9.85519 -0.137709 -0.106387
52 1 9.80445 4.39367 0.095492
226 2 9.96564 4.16795 1.90754
56 1 9.9834 -0.0953108 2.72892
221 2 10.9446 0.00924471 3.09382
126 2 13.9036 1.98848 1.94518
54 1 13.9589 1.79415 0.0904204
234 2 13.4379 1.02004 -0.108681
233 2 13.4714 2.61197 14.5181
9 1 14.0545 2.19673 2.90896
99 2 15.0108 2.01427 3.20653
109 2 2.29351 4.14997 1.796
7 1 2.4002 4.167 2.83231
4 1 2.2698 4.31013 0.0502439
111 2 1.73391 5.04355 -0.355424
174 2 1.98538 8.10126 3.26157
30 1 2.17136 8.88626 0.153
81 1 2.50105 8.89657 2.99367
165 2 1.21263 7.10368 14.2679
113 2 -0.21305 6.26161 14.214
231 2 6.35684 6.32999 1.83086
80 1 6.48743 6.19841 2.83096
53 1 6.15276 6.66719 0.109557
232 2 5.72642 7.53955 -0.0885711
225 2 5.90277 5.39166 3.04838
55 1 10.0162 4.078 2.84349
235 2 9.53062 4.78354 3.24979
269 2 8.02421 6.38175 3.43544
188 2 9.38632 7.17379 3.59496
228 2 9.16709 5.21104 -0.104491
33 1 10.2855 8.72043 2.69023
114 2 13.9813 6.26078 1.12905
5 1 14.0408 6.30492 0.127661
32 1 13.9802 6.76672 2.76038
106 2 13.5282 6.04518 3.27057
173 2 14.8161 6.81119 3.25923
116 2 13.4277 5.64018 -0.226605
185 2 2.14986 8.84808 1.11947
186 2 3.16351 8.88219 -0.0420598
123 2 2.05409 12.5424 3.01037
184 2 1.36244 10.2282 13.7973
271 2 6.29554 11.2504 1.12216
79 1 6.64234 10.9548 2.87189
76 1 6.2985 11.429 0.127922
265 2 6.32623 10.1595 3.33463
222 2 6.04377 11.6636 3.18546
274 2 7.14321 11.0251 -0.223172
189 2 10.0756 8.76419 1.70898
78 1 10.1744 8.73771 0.0709607
276 2 9.7155 9.49223 -0.325042
236 2 9.67719 12.5868 2.9805
178 2 14.2101 11.1327 0.7128
31 1 14.114 11.1705 2.67401
28 1 14.1546 10.9545 -0.270654
102 2 13.58 12.0086 3.01361
181 2 15.0349 11.0715 14.0793
97 2 2.09379 3.29077 3.19287
98 2 1.35248 0.983824 3.69969
1 1 0.980506 1.90968 3.93049
100 2 0.815691 1.90797 4.87835
89 1 0.994193 1.70893 6.5701
239 2 1.47838 2.56838 6.83678
261 2 1.36803 0.958364 7.05976
224 2 5.37493 3.43201 3.74344
278 2 5.4077 0.445142 6.41704
135 2 5.73612 2.57233 7.2495
217 2 9.07941 2.82665 3.54354
218 2 9.03967 1.35307 3.5307
155 2 7.59873 2.09887 6.8708
49 1 8.60089 2.10079 3.99545
220 2 8.65431 2.07923 5.62005
58 1 8.6017 2.26576 6.61638
128 2 9.6457 0.654384 7.39778
125 2 13.1917 0.272006 3.79962
105 2 13.213 3.61994 3.79255
154 2 12.9874 0.13599 7.00943
193 2 11.5913 13.1674 7.18937
50 1 12.6087 13.0914 3.91925
223 2 12.4026 13.0753 4.88065
245 2 12.7299 3.35558 7.18557
3 1 12.7703 4.43073 4.03669
107 2 11.8484 4.44478 3.58823
60 1 12.3172 4.13535 6.72495
108 2 12.3496 4.0537 5.73797
121 2 1.50926 5.71579 3.42869
26 1 1.0564 6.50566 3.82084
132 2 0.969059 6.27254 4.7539
11 1 0.935067 6.11981 6.40272
130 2 1.42854 5.44912 6.94832
131 2 0.0270879 6.11412 6.7414
133 2 1.50554 8.00042 7.48916
122 2 4.05188 4.19365 3.49369
51 1 4.91612 4.23617 4.00397
136 2 4.88361 4.07225 5.73943
267 2 4.25646 8.74682 3.41602
12 1 4.96841 3.97572 6.75234
266 2 5.59216 7.77343 3.55696
137 2 5.47848 4.79971 7.0701
73 1 5.16727 8.67339 3.812
268 2 4.9906 8.40437 5.60709
241 2 7.06738 6.30658 7.15321
171 2 11.2801 8.78826 2.86464
74 1 8.89889 6.38371 3.96097
59 1 8.60016 6.6245 6.62034
242 2 8.58901 6.60822 5.64456
240 2 9.14537 5.80885 6.95562
243 2 9.74466 7.94486 7.09017
191 2 11.9488 8.84997 6.81372
170 2 13.0934 7.97716 3.25644
34 1 12.8849 8.73023 6.58178
25 1 12.8161 8.91475 3.51034
172 2 12.8251 8.74036 4.45153
153 2 13.41 5.51081 7.3581
270 2 2.00946 9.72141 3.10602
187 2 -0.0701907 11.235 3.34062
75 1 0.928663 11.2984 3.53106
196 2 0.974194 11.194 4.50549
36 1 1.23788 10.8918 6.42037
194 2 0.278758 10.8137 6.58585
197 2 1.56553 11.7961 6.67967
127 2 3.19498 -0.0839845 7.38981
195 2 2.11952 9.44585 7.28206
101 2 3.96631 13.2136 3.20482
209 2 4.07781 8.57195 6.86887
82 1 5.01141 8.46371 6.60244
83 1 5.01894 13.1505 6.1869
2 1 4.88373 13.0977 3.51727
103 2 4.95604 13.0638 4.51168
279 2 5.50277 12.4509 6.59888
176 2 8.19814 10.9186 3.43916
175 2 9.53108 9.95227 3.5734
27 1 9.12898 10.8881 3.77856
177 2 9.1523 11.1783 5.5663
84 1 8.94515 11.2136 6.54091
208 2 9.40451 11.9415 6.94869
281 2 9.6294 9.57205 7.06132
169 2 13.6438 10.334 2.98435
35 1 12.4226 12.9005 6.76264
192 2 13.5639 11.5879 7.31107
134 2 3.2339 4.39409 7.23446
20 1 2.49124 -0.145295 10.538
150 2 2.31097 4.3279 8.54944
16 1 2.27295 4.28253 7.5381
19 1 2.43108 4.28318 10.1093
158 2 3.42436 4.3579 10.4462
18 1 6.11593 1.62636 7.40879
156 2 6.15032 1.71093 8.45035
69 1 6.24138 1.7803 10.1061
253 2 5.65998 2.52763 10.3144
248 2 7.16028 1.94483 10.4531
143 2 5.54816 0.541474 10.8724
238 2 9.36768 3.62304 7.16667
160 2 9.96277 -0.110237 8.84978
68 1 10.0661 -0.231687 10.533
258 2 14.5752 1.87457 7.06345
66 1 13.6818 1.79181 7.48447
162 2 13.9203 1.88855 8.46888
21 1 14.1413 1.86616 10.217
146 2 13.7415 2.57171 10.8054
140 2 15.0871 1.86702 10.4989
42 1 2.28384 8.54687 7.67667
284 2 2.1585 8.82637 9.38787
157 2 2.0319 5.02959 10.6862
256 2 5.62112 6.92277 7.24969
65 1 6.14846 6.17868 7.58157
257 2 6.20698 6.52182 9.09453
92 1 6.13429 6.54415 10.125
286 2 7.09233 6.44328 10.397
282 2 5.35569 8.13473 10.722
67 1 10.1364 4.30657 10.0559
255 2 10.0041 4.40528 9.08397
64 1 9.85227 4.52268 7.37737
259 2 9.50773 4.99469 10.4669
244 2 10.8002 4.39056 7.09272
151 2 13.1699 7.88216 6.94038
17 1 14.0624 6.21872 7.5673
152 2 14.2082 6.09882 8.57176
44 1 14.2101 6.06102 10.2561
199 2 13.6575 6.85178 10.6255
202 2 15.1715 6.1801 10.6463
142 2 3.45014 -0.316726 10.7523
129 2 2.37345 -0.263036 8.751
10 1 2.27309 13.205 7.73933
93 1 2.14517 8.83496 10.361
210 2 1.6663 9.68734 10.4864
159 2 1.90837 12.6074 10.6603
287 2 0.0363071 11.3036 10.5992
277 2 5.97411 10.1237 7.22388
280 2 7.27516 10.9942 7.05624
88 1 6.35348 11.008 7.42656
288 2 6.28254 10.8235 9.1775
91 1 6.29296 10.9148 10.1893
251 2 5.86025 10.1223 10.5562
145 2 5.38453 12.5208 10.9184
41 1 10.1209 -0.0537745 7.8298
213 2 10.1672 8.89053 9.22123
45 1 10.2406 8.77756 10.2189
200 2 11.211 8.7476 10.419
90 1 10.2089 8.75311 7.38344
260 2 9.7589 12.4652 10.9055
250 2 11.0556 -0.0981031 10.7972
190 2 13.7028 10.0617 7.04865
40 1 14.1684 10.8651 7.44963
207 2 13.9944 10.8098 9.21537
43 1 14.094 10.8147 10.202
211 2 13.495 11.5845 10.5411
198 2 13.1932 9.19121 10.6976
164 2 -0.182386 2.23615 14.1803
262 2 2.94781 -0.17725 14.3058
138 2 1.64829 2.91381 10.8781
139 2 1.68961 1.31719 10.9558
13 1 1.13517 2.13753 11.1805
22 1 0.820793 2.19066 13.9485
141 2 0.888415 2.27125 12.9515
118 2 5.6546 1.67088 -0.136318
117 2 5.31906 3.98642 14.2218
168 2 4.87817 4.28883 11.8751
14 1 4.96389 -0.217487 11.2626
63 1 4.88399 4.28695 10.8865
95 1 4.59652 0.162294 14.0173
120 2 7.60334 2.34001 14.1457
227 2 9.28453 3.64512 14.4461
246 2 9.09755 2.74393 10.6239
247 2 9.28955 1.21131 10.9157
61 1 8.70544 1.99116 11.0782
70 1 8.56525 2.35903 13.8509
249 2 8.51865 2.2152 12.9182
161 2 13.2066 0.296393 10.8939
15 1 12.7621 4.0752 11.291
72 1 12.7254 4.12653 14.1648
149 2 12.6651 4.09295 13.1591
229 2 11.6868 4.2506 -0.333936
144 2 11.6779 -0.315288 14.1618
203 2 1.50059 7.54572 10.9203
38 1 1.08771 6.64821 11.2152
23 1 0.726451 6.46218 13.7366
166 2 0.978571 6.51405 12.1831
112 2 3.81909 4.44168 14.3607
24 1 4.69182 4.63041 13.8697
167 2 5.5391 5.91975 -0.240184
254 2 5.2548 5.2013 10.6156
263 2 9.10614 7.3643 14.1005
212 2 9.38015 7.48837 10.8696
230 2 7.68179 6.63838 14.1492
86 1 8.85349 6.59613 10.9984
71 1 8.64699 6.53116 13.8494
264 2 8.69729 6.58263 11.9957
148 2 11.8881 4.04272 10.8306
147 2 13.2122 4.91223 10.872
115 2 13.3515 7.92934 14.051
37 1 12.8392 8.37569 11.0336
201 2 13.0186 8.39353 12.0227
46 1 12.9024 8.68469 13.6262
87 1 0.956416 11.3114 10.9364
215 2 1.41144 11.8717 13.8283
48 1 0.939249 11.056 13.4369
216 2 0.889799 11.3458 11.9553
273 2 4.7963 0.0866135 13.0686
285 2 4.71495 9.12064 13.1774
272 2 5.23629 9.88197 14.4024
283 2 4.01459 8.9607 10.7201
94 1 4.8899 8.9888 14.1601
85 1 4.96012 8.9471 11.1069
275 2 5.02683 12.977 -0.182003
214 2 11.0327 8.54841 14.3435
205 2 8.08534 10.9287 10.7434
204 2 9.45645 10.1766 10.9303
183 2 9.28699 11.7216 14.171
39 1 8.95268 10.9865 11.2116
96 1 8.96716 10.8973 13.7397
206 2 8.89342 11.061 12.7273
47 1 12.6415 -0.289574 13.8964
62 1 12.7388 13.0605 11.1401
252 2 12.6892 13.1474 12.1068
180 2 13.039 12.3837 14.067
179 2 13.3245 9.52758 13.9593
ITEM: TIMESTEP
400
ITEM: NUMBER OF ATOMS
288
ITEM: BOX BOUNDS pp pp pp
-3.3815523574703210e-01 1.5345687335746879e+01
-2.9284957244322829e-01 1.3289689172443975e+01
-3.1787864846924663e-01 1.4425523648470257e+01
ITEM: ATOMS id type x y z
237 2 1.92827 0.742882 14.3106
8 1 2.29953 13.2154 2.63283
124 2 2.28531 -0.320354 1.6049
77 1 2.25268 -0.0487257 0.0532275
110 2 1.83384 3.54199 14.3788
119 2 6.64572 2.39682 0.953573
57 1 6.2891 2.20527 2.81926
6 1 6.45642 2.16914 -0.0495658
219 2 7.20178 2.09383 3.23436
104 2 5.6856 1.45594 3.12485
182 2 10.3355 -0.438525 1.14428
163 2 9.98007 0.404464 -0.201469
29 1 10.4999 13.1812 0.135952
52 1 9.93899 4.42577 0.174067
226 2 9.95791 4.56843 2.22446
56 1 10.3255 -0.167857 2.74151
221 2 11.2446 -0.199459 3.09111
126 2 13.9754 1.86796 1.91477
54 1 14.0939 2.0319 0.0836063
234 2 13.6735 1.24583 14.312
233 2 13.7437 2.89165 -0.281352
9 1 13.8338 2.06743 2.87026
99 2 14.7682 1.88808 3.23115
109 2 2.01322 4.07191 1.73408
7 1 1.77415 4.23875 2.70522
4 1 2.37553 4.30482 -0.0170503
111 2 1.83028 5.081 -0.242592
174 2 1.90197 7.94122 2.80087
30 1 2.28975 8.99494 -0.0416885
81 1 2.29048 8.78413 2.50459
165 2 1.53002 7.51156 14.0801
113 2 0.168271 6.58796 14.1448
231 2 5.99086 6.41772 1.97782
80 1 6.05992 6.47452 2.99169
53 1 5.94661 6.71106 0.243275
232 2 5.38692 7.38304 -0.231124
225 2 5.5742 5.68612 3.25292
55 1 10.0821 4.35862 3.14663
235 2 9.55283 5.13025 3.56421
269 2 7.88794 6.60495 3.59011
188 2 9.31205 7.4727 3.44517
228 2 9.38568 5.16808 -0.233793
33 1 10.0617 8.71155 2.68241
114 2 14.0739 6.50666 0.944526
5 1 14.0295 6.35125 -0.0176746
32 1 14.2968 6.47457 2.77937
106 2 13.7011 5.84431 3.28849
173 2 15.2205 6.65543 3.16933
116 2 13.42 5.57553 14.7512
185 2 2.21472 8.75726 0.933605
186 2 3.30739 9.00858 -0.207994
123 2 1.66485 12.4778 2.8059
184 2 1.44007 10.3617 14.3078
271 2 6.50713 11.1139 1.09864
79 1 6.35818 11.0586 2.88824
76 1 6.31147 11.0796 0.101854
265 2 5.79808 10.2079 3.08812
222 2 5.88558 11.8779 3.24202
274 2 7.21588 11.3022 -0.263807
189 2 9.98355 8.8403 1.66722
78 1 10.0516 8.56385 -0.122243
276 2 9.73601 9.41306 14.2498
236 2 9.80557 12.7418 3.30561
178 2 13.7702 11.2256 0.891217
31 1 13.9229 11.4362 2.6137
28 1 13.8282 10.8437 -0.0137444
102 2 13.3633 12.1152 3.07626
181 2 14.7882 10.9094 14.4956
97 2 1.23178 3.39354 2.98054
98 2 1.46549 1.15012 3.16064
1 1 0.818224 1.82946 3.58881
100 2 1.01407 1.77527 4.6007
89 1 0.764959 2.00147 6.68774
239 2 1.22741 2.82086 7.03674
261 2 1.38688 1.2506 7.00065
224 2 5.14716 3.49091 3.1244
278 2 5.22907 0.151055 6.83135
135 2 5.46862 2.55156 7.08258
217 2 9.29094 2.78874 3.49009
218 2 9.35041 1.16455 3.40414
155 2 7.55501 1.66582 6.94925
49 1 8.8432 1.96511 3.75795
220 2 8.50163 1.601 5.68304
58 1 8.48068 1.60969 6.65067
128 2 9.67462 0.490417 7.27854
125 2 13.216 0.895584 3.46443
105 2 12.945 3.49649 3.33677
154 2 13.3463 0.688147 7.01432
193 2 11.981 -0.221705 6.86204
50 1 12.7074 0.0262409 3.84685
223 2 12.6758 -0.0423064 4.84577
245 2 13.1223 3.2411 6.71556
3 1 12.7059 4.35646 3.8169
107 2 11.7363 4.43369 3.45935
60 1 12.6469 4.07527 6.56647
108 2 12.6221 4.14899 5.56259
121 2 1.28008 5.62792 3.35589
26 1 1.11155 6.50907 3.7037
132 2 0.817486 6.49015 4.59811
11 1 0.545969 6.25632 6.52956
130 2 0.980284 5.45812 6.92968
131 2 15.3472 6.42517 6.91568
133 2 1.46896 7.94064 6.89512
122 2 3.63314 3.91669 3.40722
51 1 4.58213 4.10677 3.61944
136 2 4.64676 3.97029 5.32052
267 2 4.02394 8.90511 3.33169
12 1 4.62254 3.96548 6.33298
266 2 5.24083 7.90347 3.46489
137 2 5.06374 4.83708 6.56589
73 1 4.93794 8.78242 3.80245
268 2 4.94538 8.76742 5.59484
241 2 6.81353 6.27171 7.1657
171 2 11.0321 8.76094 2.83131
74 1 8.80361 6.71002 3.91248
59 1 8.58418 6.71121 6.61733
242 2 8.48067 6.6726 5.64665
240 2 9.07609 5.89273 6.73692
243 2 9.50392 8.28979 7.04273
191 2 11.71 8.63402 6.69009
170 2 13.1443 8.08369 3.16787
34 1 12.5633 8.51181 6.20015
25 1 12.6204 8.93918 3.4321
172 2 12.3933 8.81867 4.39779
153 2 13.1529 5.45388 7.20465
270 2 1.79937 9.42893 3.14273
187 2 -0.0255885 11.0352 3.29286
75 1 0.870827 10.8104 3.59548
196 2 1.00591 11.1208 4.51997
36 1 0.845552 11.0871 6.40227
194 2 -0.0259681 11.0386 6.86687
197 2 1.31404 11.768 6.88612
127 2 3.22034 13.1793 7.19122
195 2 1.6808 9.43621 7.06715
101 2 3.98832 13.2328 3.22262
209 2 3.71927 8.73381 6.65983
82 1 4.72243 8.70507 6.55762
83 1 4.73033 13.0045 6.39942
2 1 4.86098 -0.0756133 3.58604
103 2 4.80925 13.3495 4.52914
279 2 5.36608 12.2653 6.60313
176 2 7.93997 11.212 3.30962
175 2 9.26913 10.5867 3.35197
27 1 8.83289 11.397 3.71832
177 2 8.80941 11.2767 5.62231
84 1 8.93246 11.094 6.60285
208 2 9.27221 11.94 6.89565
281 2 9.96021 9.84713 7.11338
169 2 13.4422 10.6223 2.972
35 1 12.9567 -0.187424 6.68265
192 2 13.4653 11.4795 6.9941
134 2 2.98638 3.94681 7.06297
20 1 2.72308 -0.0167542 10.4658
150 2 2.25299 4.08818 8.49577
16 1 2.05088 4.00068 7.47697
19 1 2.51361 4.29722 10.1694
158 2 3.49767 4.27659 10.5811
18 1 5.87338 1.77802 7.51802
156 2 5.85022 1.78901 8.49687
69 1 6.12841 1.97221 10.3237
253 2 5.76557 2.77498 10.7889
248 2 7.11071 2.07261 10.4812
143 2 5.75152 0.609695 11.1679
238 2 9.53997 3.24212 7.38425
160 2 10.3599 -0.191882 8.47595
68 1 10.277 -0.264062 10.3552
258 2 14.94 1.9697 7.40261
66 1 14.012 2.05053 7.79353
162 2 14.074 1.79311 8.74342
21 1 14.0598 1.87891 10.6187
146 2 13.5918 2.71503 10.8379
140 2 15.0251 2.02223 10.8162
42 1 2.1303 8.5789 7.22511
284 2 2.30252 8.4817 9.20894
157 2 2.01183 4.93897 10.7915
256 2 5.53263 7.14025 7.14193
65 1 5.90002 6.36586 7.54699
257 2 6.04352 6.51912 9.30353
92 1 6.21232 6.47737 10.2564
286 2 7.15254 6.28661 10.4944
282 2 5.34118 7.97347 11.2708
67 1 10.2512 3.96855 10.2693
255 2 10.0133 4.06769 9.32477
64 1 9.87364 4.1623 7.5911
259 2 9.75848 4.62343 10.764
244 2 10.8058 4.11536 7.32354
151 2 13.0294 7.68413 6.60048
17 1 13.6675 6.31682 7.48307
152 2 13.6802 6.38224 8.45459
44 1 13.8928 6.39838 10.1876
199 2 13.5478 7.20524 10.6913
202 2 14.8661 6.36849 10.4615
142 2 3.66552 0.0795174 10.8285
129 2 2.57572 -0.0755939 8.58486
10 1 2.36677 -0.169209 7.59059
93 1 2.40994 8.6439 10.213
210 2 2.00609 9.50954 10.4618
159 2 2.29618 12.7984 10.9091
287 2 0.0545991 11.0154 10.9087
277 2 5.87516 9.94682 7.20328
280 2 7.14965 10.9422 7.16307
88 1 6.22166 10.8765 7.44741
288 2 6.36822 10.9471 9.19196
91 1 6.43887 11.0612 10.185
251 2 5.86547 10.3523 10.5402
145 2 5.75413 12.5415 11.0801
41 1 10.1652 -0.324755 7.53613
213 2 10.4711 8.69482 9.35742
45 1 10.367 8.44194 10.285
200 2 11.2603 8.55391 10.6805
90 1 10.2666 8.88573 7.37794
260 2 9.85795 12.4304 10.5953
250 2 11.2176 13.2234 10.7686
190 2 13.5018 9.92695 7.03175
40 1 13.949 10.6906 7.3707
207 2 13.9944 10.6923 9.15604
43 1 14.1084 10.7883 10.1491
211 2 13.713 11.7154 10.3719
198 2 13.4107 9.37609 11.0831
164 2 0.122601 2.21137 14.0457
262 2 3.15937 -0.212805 -0.317848
138 2 1.67151 2.93562 10.8224
139 2 1.51493 1.36381 10.6536
13 1 1.0844 2.18577 11.0002
22 1 1.01812 2.17222 13.6915
141 2 0.988136 2.13798 12.6658
118 2 5.79164 1.40356 -0.0247401
117 2 5.46499 3.52784 14.4614
168 2 4.97788 4.33575 12.2087
14 1 5.3339 13.3193 11.5637
63 1 5.00472 4.37932 11.2556
95 1 5.01869 -0.138012 14.1984
120 2 8.144 1.8226 14.2845
227 2 9.51754 3.46153 -0.0592702
246 2 9.49898 2.68763 10.7884
247 2 9.40888 1.09901 11.09
61 1 8.98144 1.97323 11.3265
70 1 9.09988 1.85972 14.011
249 2 9.17742 1.95144 13.0185
161 2 13.5338 0.463106 10.7493
15 1 12.7986 4.14169 11.1953
72 1 12.682 4.24027 13.9478
149 2 12.715 4.1468 12.9514
229 2 11.7205 4.10774 14.3298
144 2 12.1006 13.2929 14.1304
203 2 1.37857 7.46625 10.9761
38 1 0.946115 6.59315 11.2202
23 1 1.1352 6.66521 13.8696
166 2 1.14233 6.60842 12.1743
112 2 4.10845 4.30444 14.5419
24 1 5.03597 4.36685 14.1936
167 2 5.56426 5.78277 -0.102495
254 2 5.55894 5.13656 10.8518
263 2 9.16289 7.34503 14.1796
212 2 9.237 7.04121 10.7639
230 2 7.6657 6.53208 14.155
86 1 8.88893 6.18385 11.1167
71 1 8.6083 6.55489 13.7742
264 2 8.68802 6.34517 12.0734
148 2 11.89 4.04951 10.7576
147 2 13.2005 4.98502 10.8258
115 2 13.2359 7.78106 14.3649
37 1 12.9197 8.60625 11.463
201 2 12.8771 8.70302 12.4726
46 1 12.6856 8.54738 14.1296
87 1 0.98245 10.9522 11.2829
215 2 1.14918 11.9624 14.1433
48 1 0.772564 11.0545 13.9652
216 2 0.886904 10.9604 12.3032
273 2 5.16757 -0.136692 13.2199
285 2 4.7105 8.96556 12.992
272 2 5.24975 9.75985 14.3295
283 2 4.00421 8.66638 10.9914
94 1 4.62701 9.09997 13.9772
85 1 4.85193 8.83109 11.4293
275 2 5.54288 12.7093 -0.216805
214 2 10.9928 8.5326 -0.456367
205 2 8.18015 10.8879 10.6676
204 2 9.6706 10.2001 10.8005
183 2 9.64227 12.0983 14.0888
39 1 9.14147 11.0327 10.9926
96 1 8.97606 11.2877 13.8946
206 2 8.99382 11.2235 12.9094
47 1 13.0152 13.1823 13.6823
62 1 13.1667 13.0729 10.917
252 2 13.2286 12.9305 11.8777
180 2 13.417 12.3424 14.1423
179 2 13.1922 9.38647 14.3063
ITEM: TIMESTEP
600
ITEM: NUMBER OF ATOMS
288
ITEM: BOX BOUNDS pp pp pp
-3.5172241739591303e-01 1.5359254517395762e+01
-3.0459903814749278e-01 1.3301438638148220e+01
-3.3063230983592717e-01 1.4438277309836938e+01
ITEM: ATOMS id type x y z
237 2 1.99922 0.648007 14.408
8 1 2.05692 13.2825 2.9486
124 2 2.3742 13.2202 2.04021
77 1 2.46328 -0.155295 0.0449843
110 2 1.83263 3.49205 14.486
119 2 6.43108 1.91476 1.14866
57 1 6.17586 1.90755 2.77686
6 1 6.68217 1.87943 0.13488
219 2 7.18023 2.10643 3.06539
104 2 5.92538 1.06678 3.23012
182 2 10.8374 -0.0274944 1.08884
163 2 10.0643 0.527121 -0.11602
29 1 10.6517 -0.23302 0.0955348
52 1 10.3257 4.18353 0.300651
226 2 10.1199 4.27884 2.00343
56 1 10.228 -0.192352 3.10028
221 2 11.0713 -0.263197 3.55149
126 2 14.1923 2.28871 1.71837
54 1 14.1951 2.17328 -0.216513
234 2 13.8511 1.29524 14.2387
233 2 13.6086 2.78596 14.0144
9 1 14.1558 2.22233 2.64909
99 2 15.0929 2.11896 2.96496
109 2 2.11817 4.02271 1.82051
7 1 2.18274 4.08738 2.81904
4 1 2.30941 4.3089 0.048966
111 2 1.96534 5.12069 -0.467472
174 2 1.3681 7.95315 3.2944
30 1 2.35074 8.7918 0.202083
81 1 1.88495 8.70396 2.96962
165 2 1.60755 7.20056 14.1506
113 2 0.357973 6.30693 14.3103
231 2 5.92192 6.82059 1.87058
80 1 5.80846 6.80611 2.88637
53 1 6.14727 6.6665 0.298985
232 2 5.86515 7.30633 -0.367553
225 2 5.39563 5.96235 3.15092
55 1 10.0315 4.43077 2.96923
235 2 9.65726 5.29414 3.14763
269 2 7.36809 6.83927 3.60347
188 2 8.68423 7.62055 3.5213
228 2 9.79614 4.94563 -0.084927
33 1 9.86403 9.0007 2.69656
114 2 14.0841 6.64663 1.00945
5 1 14.2825 6.52635 0.0476805
32 1 13.9937 6.43638 2.9178
106 2 13.4841 5.58589 3.20461
173 2 14.9221 6.2306 3.33175
116 2 13.9323 5.66554 -0.36586
185 2 2.43965 8.7713 1.17743
186 2 3.21887 8.74587 -0.247805
123 2 1.71378 12.3883 3.27862
184 2 1.41286 10.6566 -0.242516
271 2 6.18167 10.9188 1.28121
79 1 5.93581 11.3081 2.85599
76 1 6.41302 10.6928 0.344948
265 2 5.34494 10.5197 3.15122
222 2 5.52731 12.0478 3.31402
274 2 7.28818 11.0334 0.10585
189 2 9.84113 8.88529 1.6489
78 1 9.7692 8.76824 0.148316
276 2 9.34084 9.5898 -0.271043
236 2 9.61983 12.6972 3.31782
178 2 14.0332 11.1721 1.46833
31 1 13.9862 10.8319 3.16116
28 1 14.0489 11.0929 0.442467
102 2 13.6744 11.6559 3.57711
181 2 14.9772 11.2018 0.1837
97 2 1.8041 3.21793 3.18398
98 2 1.17754 0.993892 3.43111
1 1 0.764071 1.90968 3.69703
100 2 0.68838 1.96625 4.7173
89 1 0.932586 1.83545 6.49385
239 2 1.35489 2.68488 6.86397
261 2 1.389 1.02985 6.847
224 2 5.20193 3.57524 3.29196
278 2 5.19793 0.390097 7.10779
135 2 5.64953 2.97805 7.2947
217 2 9.32677 3.04143 3.5596
218 2 9.39912 1.41992 3.52616
155 2 7.79 1.71711 6.70636
49 1 8.78664 2.25119 3.75118
220 2 8.83459 1.81715 5.48956
58 1 8.75522 1.60391 6.44408
128 2 9.62912 0.229416 6.89907
125 2 13.3664 0.710431 3.42312
105 2 13.2006 3.30334 3.46285
154 2 13.0867 0.723831 7.11561
193 2 11.8219 -0.154256 6.88644
50 1 12.8359 0.0390916 3.98668
223 2 12.9724 0.255666 4.92099
245 2 13.0434 3.12492 6.90183
3 1 12.6961 4.09268 3.72531
107 2 11.7336 4.03959 3.53414
60 1 12.6915 3.99793 6.545
108 2 12.785 4.0185 5.55322
121 2 1.23854 5.70018 3.59855
26 1 0.714017 6.53618 3.76818
132 2 0.697965 6.5085 4.7787
11 1 0.726003 6.60927 6.44522
130 2 1.10977 5.74055 6.87924
131 2 -0.224026 6.58046 6.76244
133 2 1.76373 8.09881 6.84237
122 2 3.71794 4.3313 3.14966
51 1 4.66718 4.4039 3.49943
136 2 4.69724 4.47782 5.49675
267 2 3.59186 8.80618 3.48356
12 1 4.66745 4.42645 6.4919
266 2 5.01271 8.1537 3.58397
137 2 5.17428 5.18587 6.86544
73 1 4.5354 9.02792 3.73673
268 2 4.55291 8.97542 5.4398
241 2 6.92311 6.59172 6.957