1.538582706451416016e+01 0.000000000000000000e+00 0.000000000000000000e+00 0.000000000000000000e+00 1.538582706451416016e+01 0.000000000000000000e+00 0.000000000000000000e+00 0.000000000000000000e+00 1.538582706451416016e+01
1.543951797485351562e+01 0.000000000000000000e+00 0.000000000000000000e+00 0.000000000000000000e+00 1.543951797485351562e+01 0.000000000000000000e+00 0.000000000000000000e+00 0.000000000000000000e+00 1.543951797485351562e+01
1.552370643615722656e+01 0.000000000000000000e+00 0.000000000000000000e+00 0.000000000000000000e+00 1.552370643615722656e+01 0.000000000000000000e+00 0.000000000000000000e+00 0.000000000000000000e+00 1.552370643615722656e+01
1.560469436645507812e+01 0.000000000000000000e+00 0.000000000000000000e+00 0.000000000000000000e+00 1.560469436645507812e+01 0.000000000000000000e+00 0.000000000000000000e+00 0.000000000000000000e+00 1.560469436645507812e+01
1.642019081115722656e+01 0.000000000000000000e+00 0.000000000000000000e+00 0.000000000000000000e+00 1.642019081115722656e+01 0.000000000000000000e+00 0.000000000000000000e+00 0.000000000000000000e+00 1.642019081115722656e+01
1.564402770996093750e+01 0.000000000000000000e+00 0.000000000000000000e+00 0.000000000000000000e+00 1.564402770996093750e+01 0.000000000000000000e+00 0.000000000000000000e+00 0.000000000000000000e+00 1.564402770996093750e+01
1.646616744995117188e+01 0.000000000000000000e+00 0.000000000000000000e+00 0.000000000000000000e+00 1.646616744995117188e+01 0.000000000000000000e+00 0.000000000000000000e+00 0.000000000000000000e+00 1.646616744995117188e+01
1.608945846557617188e+01 0.000000000000000000e+00 0.000000000000000000e+00 0.000000000000000000e+00 1.608945846557617188e+01 0.000000000000000000e+00 0.000000000000000000e+00 0.000000000000000000e+00 1.608945846557617188e+01
1.551864433288574219e+01 0.000000000000000000e+00 0.000000000000000000e+00 0.000000000000000000e+00 1.551864433288574219e+01 0.000000000000000000e+00 0.000000000000000000e+00 0.000000000000000000e+00 1.551864433288574219e+01
1.548075675964355469e+01 0.000000000000000000e+00 0.000000000000000000e+00 0.000000000000000000e+00 1.548075675964355469e+01 0.000000000000000000e+00 0.000000000000000000e+00 0.000000000000000000e+00 1.548075675964355469e+01
1.626362037658691406e+01 0.000000000000000000e+00 0.000000000000000000e+00 0.000000000000000000e+00 1.626362037658691406e+01 0.000000000000000000e+00 0.000000000000000000e+00 0.000000000000000000e+00 1.626362037658691406e+01
1.623460578918457031e+01 0.000000000000000000e+00 0.000000000000000000e+00 0.000000000000000000e+00 1.623460578918457031e+01 0.000000000000000000e+00 0.000000000000000000e+00 0.000000000000000000e+00 1.623460578918457031e+01
1.551235198974609375e+01 0.000000000000000000e+00 0.000000000000000000e+00 0.000000000000000000e+00 1.551235198974609375e+01 0.000000000000000000e+00 0.000000000000000000e+00 0.000000000000000000e+00 1.551235198974609375e+01
1.655327987670898438e+01 0.000000000000000000e+00 0.000000000000000000e+00 0.000000000000000000e+00 1.655327987670898438e+01 0.000000000000000000e+00 0.000000000000000000e+00 0.000000000000000000e+00 1.655327987670898438e+01
1.563691902160644531e+01 0.000000000000000000e+00 0.000000000000000000e+00 0.000000000000000000e+00 1.563691902160644531e+01 0.000000000000000000e+00 0.000000000000000000e+00 0.000000000000000000e+00 1.563691902160644531e+01
1.542719841003417969e+01 0.000000000000000000e+00 0.000000000000000000e+00 0.000000000000000000e+00 1.542719841003417969e+01 0.000000000000000000e+00 0.000000000000000000e+00 0.000000000000000000e+00 1.542719841003417969e+01
1.543057918548583984e+01 0.000000000000000000e+00 0.000000000000000000e+00 0.000000000000000000e+00 1.543057918548583984e+01 0.000000000000000000e+00 0.000000000000000000e+00 0.000000000000000000e+00 1.543057918548583984e+01
1.654805755615234375e+01 0.000000000000000000e+00 0.000000000000000000e+00 0.000000000000000000e+00 1.654805755615234375e+01 0.000000000000000000e+00 0.000000000000000000e+00 0.000000000000000000e+00 1.654805755615234375e+01
1.545300006866455078e+01 0.000000000000000000e+00 0.000000000000000000e+00 0.000000000000000000e+00 1.545300006866455078e+01 0.000000000000000000e+00 0.000000000000000000e+00 0.000000000000000000e+00 1.545300006866455078e+01
1.640708351135253906e+01 0.000000000000000000e+00 0.000000000000000000e+00 0.000000000000000000e+00 1.640708351135253906e+01 0.000000000000000000e+00 0.000000000000000000e+00 0.000000000000000000e+00 1.640708351135253906e+01
1.660966491699218750e+01 0.000000000000000000e+00 0.000000000000000000e+00 0.000000000000000000e+00 1.660966491699218750e+01 0.000000000000000000e+00 0.000000000000000000e+00 0.000000000000000000e+00 1.660966491699218750e+01
1.557482719421386719e+01 0.000000000000000000e+00 0.000000000000000000e+00 0.000000000000000000e+00 1.557482719421386719e+01 0.000000000000000000e+00 0.000000000000000000e+00 0.000000000000000000e+00 1.557482719421386719e+01
1.556032943725585938e+01 0.000000000000000000e+00 0.000000000000000000e+00 0.000000000000000000e+00 1.556032943725585938e+01 0.000000000000000000e+00 0.000000000000000000e+00 0.000000000000000000e+00 1.556032943725585938e+01
1.633990669250488281e+01 0.000000000000000000e+00 0.000000000000000000e+00 0.000000000000000000e+00 1.633990669250488281e+01 0.000000000000000000e+00 0.000000000000000000e+00 0.000000000000000000e+00 1.633990669250488281e+01
1.555764579772949219e+01 0.000000000000000000e+00 0.000000000000000000e+00 0.000000000000000000e+00 1.555764579772949219e+01 0.000000000000000000e+00 0.000000000000000000e+00 0.000000000000000000e+00 1.555764579772949219e+01
1.612108802795410156e+01 0.000000000000000000e+00 0.000000000000000000e+00 0.000000000000000000e+00 1.612108802795410156e+01 0.000000000000000000e+00 0.000000000000000000e+00 0.000000000000000000e+00 1.612108802795410156e+01
1.567821979522705078e+01 0.000000000000000000e+00 0.000000000000000000e+00 0.000000000000000000e+00 1.567821979522705078e+01 0.000000000000000000e+00 0.000000000000000000e+00 0.000000000000000000e+00 1.567821979522705078e+01
1.561692810058593750e+01 0.000000000000000000e+00 0.000000000000000000e+00 0.000000000000000000e+00 1.561692810058593750e+01 0.000000000000000000e+00 0.000000000000000000e+00 0.000000000000000000e+00 1.561692810058593750e+01
1.542639255523681641e+01 0.000000000000000000e+00 0.000000000000000000e+00 0.000000000000000000e+00 1.542639255523681641e+01 0.000000000000000000e+00 0.000000000000000000e+00 0.000000000000000000e+00 1.542639255523681641e+01
1.668830108642578125e+01 0.000000000000000000e+00 0.000000000000000000e+00 0.000000000000000000e+00 1.668830108642578125e+01 0.000000000000000000e+00 0.000000000000000000e+00 0.000000000000000000e+00 1.668830108642578125e+01
1.554986000061035156e+01 0.000000000000000000e+00 0.000000000000000000e+00 0.000000000000000000e+00 1.554986000061035156e+01 0.000000000000000000e+00 0.000000000000000000e+00 0.000000000000000000e+00 1.554986000061035156e+01
1.664450454711914062e+01 0.000000000000000000e+00 0.000000000000000000e+00 0.000000000000000000e+00 1.664450454711914062e+01 0.000000000000000000e+00 0.000000000000000000e+00 0.000000000000000000e+00 1.664450454711914062e+01
1.645106124877929688e+01 0.000000000000000000e+00 0.000000000000000000e+00 0.000000000000000000e+00 1.645106124877929688e+01 0.000000000000000000e+00 0.000000000000000000e+00 0.000000000000000000e+00 1.645106124877929688e+01
1.563223171234130859e+01 0.000000000000000000e+00 0.000000000000000000e+00 0.000000000000000000e+00 1.563223171234130859e+01 0.000000000000000000e+00 0.000000000000000000e+00 0.000000000000000000e+00 1.563223171234130859e+01
1.555453109741210938e+01 0.000000000000000000e+00 0.000000000000000000e+00 0.000000000000000000e+00 1.555453109741210938e+01 0.000000000000000000e+00 0.000000000000000000e+00 0.000000000000000000e+00 1.555453109741210938e+01
1.538232803344726562e+01 0.000000000000000000e+00 0.000000000000000000e+00 0.000000000000000000e+00 1.538232803344726562e+01 0.000000000000000000e+00 0.000000000000000000e+00 0.000000000000000000e+00 1.538232803344726562e+01
1.533623886108398438e+01 0.000000000000000000e+00 0.000000000000000000e+00 0.000000000000000000e+00 1.533623886108398438e+01 0.000000000000000000e+00 0.000000000000000000e+00 0.000000000000000000e+00 1.533623886108398438e+01
1.633543777465820312e+01 0.000000000000000000e+00 0.000000000000000000e+00 0.000000000000000000e+00 1.633543777465820312e+01 0.000000000000000000e+00 0.000000000000000000e+00 0.000000000000000000e+00 1.633543777465820312e+01
1.639820098876953125e+01 0.000000000000000000e+00 0.000000000000000000e+00 0.000000000000000000e+00 1.639820098876953125e+01 0.000000000000000000e+00 0.000000000000000000e+00 0.000000000000000000e+00 1.639820098876953125e+01
1.650918960571289062e+01 0.000000000000000000e+00 0.000000000000000000e+00 0.000000000000000000e+00 1.650918960571289062e+01 0.000000000000000000e+00 0.000000000000000000e+00 0.000000000000000000e+00 1.650918960571289062e+01
1.664624595642089844e+01 0.000000000000000000e+00 0.000000000000000000e+00 0.000000000000000000e+00 1.664624595642089844e+01 0.000000000000000000e+00 0.000000000000000000e+00 0.000000000000000000e+00 1.664624595642089844e+01
1.550770854949951172e+01 0.000000000000000000e+00 0.000000000000000000e+00 0.000000000000000000e+00 1.550770854949951172e+01 0.000000000000000000e+00 0.000000000000000000e+00 0.000000000000000000e+00 1.550770854949951172e+01
1.632634353637695312e+01 0.000000000000000000e+00 0.000000000000000000e+00 0.000000000000000000e+00 1.632634353637695312e+01 0.000000000000000000e+00 0.000000000000000000e+00 0.000000000000000000e+00 1.632634353637695312e+01
1.634379196166992188e+01 0.000000000000000000e+00 0.000000000000000000e+00 0.000000000000000000e+00 1.634379196166992188e+01 0.000000000000000000e+00 0.000000000000000000e+00 0.000000000000000000e+00 1.634379196166992188e+01
1.627631759643554688e+01 0.000000000000000000e+00 0.000000000000000000e+00 0.000000000000000000e+00 1.627631759643554688e+01 0.000000000000000000e+00 0.000000000000000000e+00 0.000000000000000000e+00 1.627631759643554688e+01
