8.837690353393554688e+00 7.446010112762451172e+00 9.130160331726074219e+00 4.207990169525146484e+00 3.481829881668090820e+00 4.690699875354766846e-01 1.532343959808349609e+01 8.205169677734375000e+00 1.113354015350341797e+01 9.459030151367187500e+00 1.440013980865478516e+01 1.104133987426757812e+01 4.715579986572265625e+00 1.329983997344970703e+01 1.008533954620361328e+01 1.328670024871826172e+00 3.970669984817504883e+00 1.259854030609130859e+01 7.670810222625732422e+00 5.189799785614013672e+00 6.106229782104492188e+00 1.621549963951110840e+00 1.136723995208740234e+01 1.281814002990722656e+01 7.873000204563140869e-02 1.474483966827392578e+01 4.368000030517578125e+00 1.121934032440185547e+01 6.625900268554687500e-01 1.218163967132568359e+01 1.062594032287597656e+01 4.236999899148941040e-02 8.453470230102539062e+00 2.353460073471069336e+00 6.342510223388671875e+00 2.342619895935058594e+00 9.630049705505371094e+00 1.336124038696289062e+01 1.485383987426757812e+01 8.837750434875488281e+00 1.176583957672119141e+01 1.272593975067138672e+01 8.463299751281738281e+00 9.962539672851562500e+00 1.060700058937072754e+00 4.197790145874023438e+00 5.987820148468017578e+00 8.923029899597167969e+00 4.996490001678466797e+00 5.374489784240722656e+00 1.399413967132568359e+01 5.214069843292236328e+00 1.227964019775390625e+01 3.237139940261840820e+00 8.733469963073730469e+00 4.243150234222412109e+00 2.398279905319213867e+00 9.922639846801757812e+00 6.225409984588623047e+00 5.128940105438232422e+00 1.284834003448486328e+01 7.346479892730712891e+00 8.679409980773925781e+00 7.536059856414794922e+00 7.668179988861083984e+00 1.170963954925537109e+01 3.445230007171630859e+00 1.528794002532958984e+01 1.187394046783447266e+01 1.047829985618591309e+00 6.841400265693664551e-01 7.734999805688858032e-02 1.475123977661132812e+01 1.087133979797363281e+01 1.432353973388671875e+01 2.631949901580810547e+00 1.159700006246566772e-01 4.811580181121826172e+00 1.229423999786376953e+01 1.122560024261474609e+00 1.667670011520385742e+00 1.230383968353271484e+01 8.438070297241210938e+00 1.321199983358383179e-01 1.442893981933593750e+01 7.768690109252929688e+00 1.351984024047851562e+01 2.493690013885498047e+00 1.406484031677246094e+01 9.119600057601928711e-01 9.156060218811035156e+00 7.028180122375488281e+00 1.367623996734619141e+01 8.453109741210937500e+00 4.524399936199188232e-01 1.530393981933593750e+01 5.012699961662292480e-01 1.034533977508544922e+01 5.583980083465576172e+00 3.476959943771362305e+00 9.023610115051269531e+00 1.185774040222167969e+01 2.332740068435668945e+00 2.043699979782104492e+00 9.076120376586914062e+00 4.897449970245361328e+00 9.817199707031250000e+00 7.429389953613281250e+00 1.314544010162353516e+01 1.926599979400634766e+00 1.078363990783691406e+01 7.008669853210449219e+00 7.708109855651855469e+00 7.111499786376953125e+00 1.420133972167968750e+01 5.549039840698242188e+00 1.055214023590087891e+01 1.330379962921142578e+00 1.494023990631103516e+01 9.948240280151367188e+00 6.033520221710205078e+00 1.399884033203125000e+01 7.582799911499023438e+00 1.445444011688232422e+01 1.348303985595703125e+01 2.173990011215209961e+00 3.351409912109375000e+00 1.372214031219482422e+01 6.842179775238037109e+00 9.260910034179687500e+00 7.982429981231689453e+00 3.351399898529052734e+00 1.088864040374755859e+01 1.082489967346191406e+00 5.806700229644775391e+00 3.171710014343261719e+00 1.293863964080810547e+01 1.418043994903564453e+01 3.169610023498535156e+00 1.957479953765869141e+00 6.652890205383300781e+00 1.048694038391113281e+01 3.092540025711059570e+00 8.785200119018554688e-01 6.000319957733154297e+00 5.125730037689208984e+00 3.964970111846923828e+00 1.342880010604858398e+00 1.289684009552001953e+01 8.350549697875976562e+00 1.485313987731933594e+01 1.425804042816162109e+01 7.193739891052246094e+00 7.755980014801025391e+00 9.778269767761230469e+00 5.230510234832763672e+00 7.787270069122314453e+00 1.291594028472900391e+01 3.349240064620971680e+00 2.740350008010864258e+00 8.372079849243164062e+00 6.721690177917480469e+00 1.275574016571044922e+01 7.771649837493896484e+00 5.774750232696533203e+00 1.163704013824462891e+01 4.596499919891357422e+00 3.725680112838745117e+00 2.876660108566284180e+00 3.740299940109252930e+00 2.665189981460571289e+00 3.073539972305297852e+00 1.062084007263183594e+01 2.128679990768432617e+00 1.345083999633789062e+01 2.318000078201293945e+00 6.129340171813964844e+00 9.825039863586425781e+00 1.236273956298828125e+01 1.882009983062744141e+00 8.403550148010253906e+00 2.548579931259155273e+00 8.974769592285156250e+00 6.832129955291748047e+00 1.501823997497558594e+01 1.275214004516601562e+01 2.338059902191162109e+00 6.535999774932861328e+00 1.106083965301513672e+01 8.507749557495117188e+00 1.850759983062744141e+00 5.671730041503906250e+00 9.541350364685058594e+00 2.279530048370361328e+00 1.367733955383300781e+01 1.392504024505615234e+01 9.246279716491699219e+00 2.028039932250976562e+00 6.390490055084228516e+00 4.489749908447265625e+00 8.381600379943847656e+00 1.094013977050781250e+01 6.057879924774169922e+00 1.015744018554687500e+01 2.656009912490844727e+00 1.127904033660888672e+01 1.013313961029052734e+01 6.604080200195312500e+00 9.975939750671386719e+00 1.286923980712890625e+01 3.070080041885375977e+00 6.879690170288085938e+00 1.497863960266113281e+01 6.488900184631347656e+00 8.347799777984619141e-01 3.555469989776611328e+00 1.164653968811035156e+01 9.309020042419433594e+00 3.523540019989013672e+00 5.959909915924072266e+00 1.173324012756347656e+01 5.765120029449462891e+00 8.589579582214355469e+00 3.662130117416381836e+00 1.170254039764404297e+01 1.222373962402343750e+01 1.414253997802734375e+01 1.388864040374755859e+01 1.243834018707275391e+01 1.353244018554687500e+01 8.569600105285644531e+00 1.489544010162353516e+01 1.533034038543701172e+01 1.175813961029052734e+01 1.365093994140625000e+01 1.320934009552001953e+01 1.105253982543945312e+01 5.803589820861816406e+00 1.255933952331542969e+01 1.242033958435058594e+01 9.982040405273437500e+00 9.468150138854980469e+00 1.447443962097167969e+01 1.400164031982421875e+01 1.490023994445800781e+01 1.665199995040893555e-01 1.499874019622802734e+01 6.975490093231201172e+00 2.697380065917968750e+00 6.688000202178955078e+00 8.837199807167053223e-01 1.023863983154296875e+01 5.918940067291259766e+00 1.066413974761962891e+01 1.112800016999244690e-01 9.238789558410644531e+00 6.501700282096862793e-01 2.575710058212280273e+00 1.202433967590332031e+01 4.841139793395996094e+00 1.506184005737304688e+01 1.192413997650146484e+01 8.147279739379882812e+00 1.230653953552246094e+01 8.569529533386230469e+00 1.370654010772705078e+01 8.433870315551757812e+00 4.656999930739402771e-02 7.246140003204345703e+00 5.446070194244384766e+00 1.243443965911865234e+01 9.662309646606445312e+00 1.015614032745361328e+01 2.821099996566772461e+00 1.785179972648620605e+00 1.370013999938964844e+01 6.965699791908264160e-01 2.457550048828125000e+00 1.872239947319030762e+00 3.086349964141845703e+00 8.493920326232910156e+00 3.960180044174194336e+00 1.198274040222167969e+01 1.163683986663818359e+01 1.303633975982666016e+01 3.421500027179718018e-01 1.122344017028808594e+01 1.341390013694763184e+00 5.349060058593750000e+00 4.402999952435493469e-02 1.900299936532974243e-01 1.116203975677490234e+01 4.488580226898193359e+00 7.830130100250244141e+00 1.339083957672119141e+01 4.823080062866210938e+00 5.700960159301757812e+00 5.978169918060302734e+00 1.148630023002624512e+00 6.271339893341064453e+00 1.116903972625732422e+01 1.496084022521972656e+01 3.764600038528442383e+00 1.067053985595703125e+01 5.070940017700195312e+00 1.266543960571289062e+01 5.867700099945068359e+00 8.126749992370605469e+00 9.213399887084960938e-01 5.622139930725097656e+00 5.414760112762451172e+00 1.147593975067138672e+01 6.165099740028381348e-01 3.950520038604736328e+00 9.114620208740234375e+00 4.187670230865478516e+00 1.469503974914550781e+01 2.552920103073120117e+00 3.039540052413940430e+00 9.373410224914550781e+00 1.429473972320556641e+01 4.932799935340881348e-01 5.806389808654785156e+00 1.442284011840820312e+01 1.414704036712646484e+01 1.583160042762756348e+00 3.612139940261840820e+00 8.726110458374023438e+00 1.162734031677246094e+01 1.016604042053222656e+01 1.156223964691162109e+01 1.156783962249755859e+01 7.048470020294189453e+00 7.330949783325195312e+00 5.709420204162597656e+00 1.233000028878450394e-02 1.017883968353271484e+01 9.896240234375000000e+00 8.843649864196777344e+00 5.935120105743408203e+00 8.356989860534667969e+00 3.510519981384277344e+00 2.977299928665161133e+00 1.138584041595458984e+01 5.239699840545654297e+00 6.445109844207763672e+00 2.294830083847045898e+00 1.324143981933593750e+01 1.471833992004394531e+01 1.074654006958007812e+01 1.008193969726562500e+01 1.454944038391113281e+01 4.903580188751220703e+00 1.220119953155517578e+00 1.382073974609375000e+01 3.750349998474121094e+00 1.276813983917236328e+01 9.680769920349121094e+00 1.281993961334228516e+01 5.625339984893798828e+00 4.386919975280761719e+00 2.710299968719482422e+00 1.078164005279541016e+01 5.976210117340087891e+00 1.046323966979980469e+01 9.809670448303222656e+00 3.498339891433715820e+00 4.587749958038330078e+00 5.198369979858398438e+00 1.430294036865234375e+01 1.124003982543945312e+01 7.571569919586181641e+00 1.652480006217956543e+00 5.816880226135253906e+00 6.997029781341552734e+00 1.455163955688476562e+01 1.436030030250549316e+00 8.430780410766601562e+00 6.146230220794677734e+00 3.091629981994628906e+00 2.306679964065551758e+00 1.252643966674804688e+01 1.238344001770019531e+01 3.545809984207153320e+00 9.409099578857421875e+00 6.801929950714111328e+00 9.634690284729003906e+00 4.313759803771972656e+00 4.223340034484863281e+00 1.532933998107910156e+01 8.859099745750427246e-01 7.823530197143554688e+00 1.110723972320556641e+01 8.852860450744628906e+00 1.454234027862548828e+01 1.177984046936035156e+01 9.392350196838378906e+00 8.296819686889648438e+00 9.033809661865234375e+00 3.644099950790405273e+00 2.878900051116943359e+00 1.532474040985107422e+01 1.532374000549316406e+01 9.071579933166503906e+00 1.073414039611816406e+01 8.929499626159667969e+00 1.466664028167724609e+01 1.026323986053466797e+01 5.261590003967285156e+00 1.370314025878906250e+01 9.400409698486328125e+00 5.052599906921386719e-01 3.686059951782226562e+00 1.219083976745605469e+01 7.074160099029541016e+00 5.172840118408203125e+00 5.347259998321533203e+00 1.817739963531494141e+00 1.144954013824462891e+01 1.182404041290283203e+01 5.232439994812011719e+00 1.306204032897949219e+01 1.083913993835449219e+01 1.820889949798583984e+00 4.379889965057373047e+00 1.189274024963378906e+01 7.252230167388916016e+00 5.912169933319091797e+00 6.692180156707763672e+00 1.869830012321472168e+00 1.052513980865478516e+01 1.319594001770019531e+01 1.497624015808105469e+01 2.169799953699111938e-01 4.062749862670898438e+00 1.157044029235839844e+01 6.682109832763671875e+00 9.669050216674804688e+00 1.076494026184082031e+01 1.354700028896331787e-01 7.507329940795898438e+00 2.599339962005615234e+00 5.418210029602050781e+00 2.595479965209960938e+00 1.516833972930908203e+01 1.444404029846191406e+01 5.224549770355224609e+00 1.064614009857177734e+01 1.979999942705035210e-03 1.169223976135253906e+01 1.130943965911865234e+01 1.482114028930664062e+01 8.710729598999023438e+00 2.625030040740966797e+00 6.473269939422607422e+00 1.416120052337646484e+00 9.754389762878417969e+00 1.294384002685546875e+01 3.525899946689605713e-01 9.077269554138183594e+00 1.231383991241455078e+01 1.351694011688232422e+01 8.787480354309082031e+00 1.085614013671875000e+01 1.405310034751892090e+00 4.040500164031982422e+00 6.249849796295166016e+00 7.972640037536621094e+00 1.054703998565673828e+01 1.357973957061767578e+01 1.465344047546386719e+01 8.613699913024902344e+00 1.080373954772949219e+01 1.300963973999023438e+01 7.467020034790039062e+00 1.015213966369628906e+01 9.747599959373474121e-01 5.244009971618652344e+00 5.496900081634521484e+00 8.724610328674316406e+00 5.024839878082275391e+00 5.317969799041748047e+00 1.298493957519531250e+01 4.951739788055419922e+00 1.319194030761718750e+01 2.982369899749755859e+00 9.319649696350097656e+00 3.666199922561645508e+00 1.903139948844909668e+00 9.183629989624023438e+00 5.810450077056884766e+00 5.651219844818115234e+00 5.882959842681884766e+00 5.667089939117431641e+00 1.434953975677490234e+01 5.054359912872314453e+00 1.214484024047851562e+01 4.168439865112304688e+00 7.913919925689697266e+00 3.768389940261840820e+00 2.554689884185791016e+00 1.069064044952392578e+01 6.277180194854736328e+00 5.715240001678466797e+00 1.272603988647460938e+01 8.126040458679199219e+00 9.300519943237304688e+00 8.246230125427246094e+00 7.371399879455566406e+00 1.242724037170410156e+01 4.306869983673095703e+00 1.498943996429443359e+01 1.148484039306640625e+01 9.391899704933166504e-01 1.438210010528564453e+00 7.456499934196472168e-01 1.344604015350341797e+01 6.666379928588867188e+00 9.244270324707031250e+00 8.057049751281738281e+00 7.794459819793701172e+00 1.085124015808105469e+01 2.662470102310180664e+00 1.500053977966308594e+01 1.136003971099853516e+01 1.776559948921203613e+00 1.132940053939819336e+00 1.486034011840820312e+01 2.221000008285045624e-02 1.122434043884277344e+01 1.371654033660888672e+01 2.807960033416748047e+00 1.471644020080566406e+01 5.318580150604248047e+00 1.271903991699218750e+01 4.180400073528289795e-01 1.119089961051940918e+00 1.068344020843505859e+01 1.108909964561462402e+00 1.281534004211425781e+01 1.385484027862548828e+01 1.108944034576416016e+01 1.412434005737304688e+01 1.636450052261352539e+00 7.891999930143356323e-02 4.459360122680664062e+00 1.221063995361328125e+01 9.215250015258789062e+00 1.106373977661132812e+01 1.292893981933593750e+01 8.715510368347167969e+00 8.808699846267700195e-01 1.500224018096923828e+01 8.136799812316894531e+00 1.272154045104980469e+01 2.806550025939941406e+00 1.376924037933349609e+01 1.532697963714599609e+01 9.885820388793945312e+00 6.382279872894287109e+00 1.337543964385986328e+01 7.492310047149658203e+00 5.597199797630310059e-01 1.508283996582031250e+01 1.414233970642089844e+01 8.496950149536132812e+00 1.409504032135009766e+01 2.014659881591796875e+00 1.493813991546630859e+01 7.686100006103515625e-01 9.482270240783691406e+00 7.897459983825683594e+00 1.391224002838134766e+01 8.574959754943847656e+00 1.489484024047851562e+01 1.508143997192382812e+01 9.131100177764892578e-01 6.091810226440429688e+00 6.435379981994628906e+00 3.343070030212402344e+00 9.131489753723144531e+00 1.289323997497558594e+01 2.000819921493530273e+00 2.927190065383911133e+00 9.027230262756347656e+00 5.026169776916503906e+00 1.017164039611816406e+01 8.339159965515136719e+00 3.867900073528289795e-01 9.377980232238769531e+00 5.240069866180419922e+00 4.475780010223388672e+00 8.992879867553710938e+00 1.181424045562744141e+01 6.869989871978759766e+00 4.099299907684326172e-01 1.110173988342285156e+01 3.969710111618041992e+00 9.412830352783203125e+00 7.317289829254150391e+00 1.331834030151367188e+01 1.898540019989013672e+00 9.839909553527832031e+00 7.737490177154541016e+00 7.755849838256835938e+00 7.767089843750000000e+00 1.458014011383056641e+01 6.385200023651123047e+00 1.099153995513916016e+01 5.357300043106079102e-01 1.515423965454101562e+01 1.040734004974365234e+01 1.243233966827392578e+01 1.273249983787536621e+00 1.110264015197753906e+01 6.325839996337890625e+00 8.360980033874511719e+00 7.491899967193603516e+00 1.365664005279541016e+01 5.207970142364501953e+00 1.128664016723632812e+01 1.588549971580505371e+00 5.002200007438659668e-01 9.690870285034179688e+00 5.993390083312988281e+00 1.320703983306884766e+01 7.017990112304687500e+00 1.514144039154052734e+01 1.379734039306640625e+01 2.914360046386718750e+00 4.288300037384033203e+00 1.376784038543701172e+01 7.274620056152343750e+00 9.171299934387207031e+00 7.177939891815185547e+00 3.957839965820312500e+00 7.049620151519775391e+00 1.405313968658447266e+01 7.870629787445068359e+00 1.494394016265869141e+01 1.277744007110595703e+01 1.811769962310791016e+00 2.640010118484497070e+00 1.336983966827392578e+01 7.484590053558349609e+00 8.989749908447265625e+00 7.597060203552246094e+00 2.435189962387084961e+00 1.095423984527587891e+01 2.963199913501739502e-01 5.165190219879150391e+00 3.108319997787475586e+00 1.351533985137939453e+01 1.340083980560302734e+01 3.081540107727050781e+00 1.191650032997131348e+00 5.972879886627197266e+00 1.020263957977294922e+01 2.846359968185424805e+00 1.535033988952636719e+01 6.570499897003173828e+00 3.693739891052246094e+00 8.896849632263183594e+00 2.489069938659667969e+00 1.222253990173339844e+01 1.382643985748291016e+01 3.225749969482421875e+00 2.841680049896240234e+00 6.121449947357177734e+00 1.111373996734619141e+01 2.309479951858520508e+00 1.164680004119873047e+00 6.165579795837402344e+00 5.966060161590576172e+00 3.547990083694458008e+00 1.296939969062805176e+00 1.362724018096923828e+01 9.067239761352539062e+00 1.505434036254882812e+01 1.500644016265869141e+01 7.775990009307861328e+00 8.466369628906250000e+00 9.526519775390625000e+00 4.663499832153320312e+00 6.069550037384033203e+00 4.404960155487060547e+00 3.248539924621582031e+00 1.637859940528869629e+00 1.214634037017822266e+01 8.876899719238281250e+00 6.362999975681304932e-02 1.353884029388427734e+01 7.582769870758056641e+00 8.284460067749023438e+00 6.185299754142761230e-01 2.892659902572631836e+00 6.856840133666992188e+00 1.254504013061523438e+01 3.247469902038574219e+00 2.315279960632324219e+00 7.521560192108154297e+00 7.141069889068603516e+00 1.229193973541259766e+01 8.530220031738281250e+00 5.287549972534179688e+00 1.128584003448486328e+01 4.063700199127197266e+00 3.049580097198486328e+00 9.938639640808105469e+00 1.381569981575012207e+00 5.796599864959716797e+00 1.963600039482116699e+00 8.959890365600585938e+00 6.634550094604492188e+00 1.241703987121582031e+01 7.911930084228515625e+00 6.733329772949218750e+00 1.087574005126953125e+01 5.097809791564941406e+00 3.897389888763427734e+00 3.357409954071044922e+00 3.515079975128173828e+00 1.803869962692260742e+00 3.812560081481933594e+00 1.128203964233398438e+01 2.403490066528320312e+00 1.251344013214111328e+01 2.005059957504272461e+00 6.033999919891357422e+00 9.209950447082519531e+00 1.249804019927978516e+01 2.694770097732543945e+00 2.018549919128417969e+00 3.225939989089965820e+00 2.614379882812500000e+00 3.338900089263916016e+00 9.883190155029296875e+00 2.739710092544555664e+00 1.351974010467529297e+01 3.341399908065795898e+00 5.984429836273193359e+00 1.062753963470458984e+01 1.199954032897949219e+01 2.237560033798217773e+00 2.559410095214843750e+00 1.766819953918457031e+00 8.155639648437500000e+00 6.328730106353759766e+00 1.414583969116210938e+01 1.279084014892578125e+01 2.848659992218017578e+00 6.530320167541503906e+00 1.016893959045410156e+01 7.737709999084472656e+00 1.602409958839416504e+00 6.208650112152099609e+00 9.106900215148925781e+00 1.885509967803955078e+00 8.874070167541503906e+00 6.283880233764648438e+00 3.273200094699859619e-01 1.314943981170654297e+01 2.845299959182739258e+00 6.995540142059326172e+00 1.175193977355957031e+01 8.427300453186035156e+00 2.658720016479492188e+00 5.121039867401123047e+00 9.115200042724609375e+00 1.492930054664611816e+00 1.428783988952636719e+01 1.467784023284912109e+01 9.928839683532714844e+00 1.791479945182800293e+00 7.802919864654541016e+00 5.102230072021484375e+00 6.290900111198425293e-01 1.080134010314941406e+01 5.315100193023681641e+00 9.398630142211914062e+00 9.170069694519042969e+00 2.469049930572509766e+00 1.280504035949707031e+01 1.442343997955322266e+01 8.392189979553222656e+00 2.159250020980834961e+00 7.089459896087646484e+00 4.412869930267333984e+00 7.733749866485595703e+00 1.321504020690917969e+01 1.250424003601074219e+01 2.844650030136108398e+00 2.858230113983154297e+00 1.040764045715332031e+01 1.051393985748291016e+01 7.085889816284179688e+00 9.186619758605957031e+00 1.246874046325683594e+01 7.646629810333251953e+00 9.091759681701660156e+00 5.938270092010498047e+00 6.288980007171630859e+00 9.186000227928161621e-01 4.535749912261962891e+00 3.426069974899291992e+00 1.189634037017822266e+01 1.010274028778076172e+01 6.526490211486816406e+00 9.965840339660644531e+00 1.381653976440429688e+01 2.153280019760131836e+00 6.630139827728271484e+00 1.459613990783691406e+01 5.884640216827392578e+00 1.831800043582916260e-01 3.237329959869384766e+00 1.223653984069824219e+01 9.434729576110839844e+00 2.769840002059936523e+00 6.817739963531494141e+00 1.128304004669189453e+01 5.570380210876464844e+00 8.869429588317871094e+00 3.558399915695190430e+00 1.078244018554687500e+01 1.295363998413085938e+01 1.468113994598388672e+01 1.449993991851806641e+01 1.090493965148925781e+01 8.751520156860351562e+00 3.306720018386840820e+00 5.371439933776855469e+00 1.101463985443115234e+01 6.217209815979003906e+00 7.720819950103759766e+00 2.039170026779174805e+00 9.436949729919433594e+00 1.205333995819091797e+01 1.476194000244140625e+01 1.314124011993408203e+01 1.322113990783691406e+01 1.380583953857421875e+01 8.006580352783203125e+00 1.417263984680175781e+01 6.522099971771240234e-01 1.165734004974365234e+01 1.323173999786376953e+01 1.253584003448486328e+01 1.165834045410156250e+01 5.081950187683105469e+00 1.261744022369384766e+01 1.299964046478271484e+01 1.270514011383056641e+01 1.352363967895507812e+01 9.556619644165039062e+00 1.533193969726562500e+01 3.481200039386749268e-01 1.256044006347656250e+01 1.425214004516601562e+01 1.380113983154296875e+01 1.151554012298583984e+01 6.127099990844726562e+00 1.162123966217041016e+01 1.246564006805419922e+01 9.383239746093750000e+00 9.602609634399414062e+00 1.528363990783691406e+01 1.488603973388671875e+01 1.535863971710205078e+01 2.394999936223030090e-02 5.808399915695190430e-01 6.747729778289794922e+00 2.633080005645751953e+00 5.807879924774169922e+00 1.356649994850158691e+00 1.038934040069580078e+01 1.075104045867919922e+01 9.187230110168457031e+00 1.499363994598388672e+01 1.401224040985107422e+01 1.418943977355957031e+01 8.576599955558776855e-01 1.250323963165283203e+01 7.492000102996826172e+00 1.769999973475933075e-02 1.178024005889892578e+01 6.534600257873535156e-01 2.414479970932006836e+00 5.547920227050781250e+00 9.789839744567871094e+00 4.942899942398071289e-01 9.096150398254394531e+00 4.862599968910217285e-01 1.560979962348937988e+00 1.147574043273925781e+01 4.169799804687500000e+00 2.076099961996078491e-01 1.262534046173095703e+01 7.631750106811523438e+00 1.284374046325683594e+01 5.446879863739013672e+00 1.133283996582031250e+01 6.061400175094604492e-01 1.183623981475830078e+01 4.477700233459472656e+00 7.105850219726562500e+00 1.149973964691162109e+01 4.917290210723876953e+00 1.421193981170654297e+01 1.118484020233154297e+01 8.393170356750488281e+00 1.294754028320312500e+01 8.933349609375000000e+00 1.302943992614746094e+01 7.728769779205322266e+00 1.522084045410156250e+01 7.097680091857910156e+00 4.448070049285888672e+00 7.633409976959228516e+00 3.900310039520263672e+00 1.158183956146240234e+01 3.171669960021972656e+00 1.192729949951171875e+00 1.302663993835449219e+01 9.262129783630371094e+00 1.449153995513916016e+01 8.313010215759277344e+00 1.452344036102294922e+01 7.636169910430908203e+00 5.691880226135253906e+00 1.405230045318603516e+00 1.075094032287597656e+01 5.371250152587890625e+00 2.340749979019165039e+00 2.464390039443969727e+00 1.307913970947265625e+01 3.095299899578094482e-01 1.967210054397583008e+00 2.598819971084594727e+00 2.946979999542236328e+00 7.555650234222412109e+00 3.464329957962036133e+00 1.194054031372070312e+01 1.261194038391113281e+01 1.336384010314941406e+01 1.284690022468566895e+00 1.115203952789306641e+01 1.512599945068359375e+00 1.536728954315185547e+01 3.128760099411010742e+00 1.601539969444274902e+00 2.801820039749145508e+00 8.439629554748535156e+00 4.840129852294921875e+00 1.100804042816162109e+01 1.141814041137695312e+01 1.311334037780761719e+01 1.204100027680397034e-01 1.106484031677246094e+01 3.442699909210205078e-01 4.547359943389892578e+00 6.685600280761718750e-01 1.785500049591064453e-01 1.042763996124267578e+01 3.831729888916015625e+00 7.647870063781738281e+00 1.387763977050781250e+01 5.588719844818115234e+00 6.078350067138671875e+00 5.844140052795410156e+00 1.834399998188018799e-01 6.435490131378173828e+00 5.373330116271972656e+00 1.522653961181640625e+01 1.162860035896301270e+00 6.547009944915771484e+00 8.907919883728027344e+00 4.010890007019042969e+00 1.274654006958007812e+01 5.054880142211914062e+00 4.990560054779052734e+00 5.205570220947265625e+00 1.542539954185485840e+00 6.608769893646240234e+00 7.960350036621093750e+00 1.287403964996337891e+01 4.295080184936523438e+00 1.077633953094482422e+01 5.386630058288574219e+00 1.170654010772705078e+01 6.599380016326904297e+00 7.526830196380615234e+00 6.837199926376342773e-01 4.917300224304199219e+00 5.745989799499511719e+00 1.090203952789306641e+01 1.140244007110595703e+01 1.400944042205810547e+01 3.570879936218261719e+00 9.854319572448730469e+00 4.473499774932861328e+00 1.268134021759033203e+01 5.722199916839599609e+00 8.105759620666503906e+00 1.874819993972778320e+00 6.187729835510253906e+00 6.198140144348144531e+00 1.161884021759033203e+01 6.826300024986267090e-01 4.511590003967285156e+00 8.354040145874023438e+00 3.752360105514526367e+00 1.507433986663818359e+01 3.359319925308227539e+00 3.371020078659057617e+00 1.000424003601074219e+01 1.495013999938964844e+01 5.942199826240539551e-01 5.039410114288330078e+00 1.389344024658203125e+01 2.292400002479553223e-01 4.553500175476074219e+00 9.802029609680175781e+00 3.320499897003173828e+00 1.443694019317626953e+01 1.853109955787658691e+00 3.070909976959228516e+00 8.479189872741699219e+00 1.477764034271240234e+01 1.517173957824707031e+01 6.355010032653808594e+00 1.395433998107910156e+01 1.340423965454101562e+01 1.571470022201538086e+00 3.021330118179321289e+00 8.745670318603515625e+00 1.188854026794433594e+01 1.110274028778076172e+01 1.087534046173095703e+01 1.094853973388671875e+01 7.432400226593017578e+00 1.468844032287597656e+01 6.110489845275878906e+00 2.177010059356689453e+00 1.378363990783691406e+01 1.861850023269653320e+00 4.520140171051025391e+00 9.032449722290039062e+00 1.254934024810791016e+01 9.771829605102539062e+00 1.172784042358398438e+01 1.233973979949951172e+01 7.697939872741699219e+00 7.983419895172119141e+00 6.270359992980957031e+00 1.489293956756591797e+01 1.100854015350341797e+01 9.869919776916503906e+00 9.257360458374023438e+00 5.067850112915039062e+00 8.597249984741210938e+00 3.873480081558227539e+00 2.971560001373291016e+00 1.165563964843750000e+01 4.299109935760498047e+00 7.013989925384521484e+00 2.990000009536743164e+00 1.374563980102539062e+01 9.597900390625000000e+00 1.063123989105224609e+01 9.318120002746582031e+00 1.027103996276855469e+01 1.508323955535888672e+01 3.273129940032958984e+00 3.214499950408935547e+00 1.219843959808349609e+01 5.713560104370117188e+00 5.607989788055419922e+00 2.770529985427856445e+00 1.292543983459472656e+01 1.439313983917236328e+01 1.169044017791748047e+01 1.031873989105224609e+01 1.503524017333984375e+01 5.247630119323730469e+00 4.011499881744384766e-01 1.345213985443115234e+01 3.111399888992309570e+00 1.209854030609130859e+01 9.895970344543457031e+00 1.370193958282470703e+01 5.134039878845214844e+00 1.476893997192382812e+01 1.085264015197753906e+01 9.050330162048339844e+00 1.367893981933593750e+01 4.893099784851074219e+00 8.309000134468078613e-01 1.316893959045410156e+01 3.936660051345825195e+00 1.349804019927978516e+01 1.043784046173095703e+01 1.229434013366699219e+01 5.990210056304931641e+00 4.253230094909667969e+00 3.684839963912963867e+00 1.077083969116210938e+01 5.708660125732421875e+00 1.016003990173339844e+01 1.065474033355712891e+01 3.155410051345825195e+00 4.139589786529541016e+00 4.347080230712890625e+00 1.338893985748291016e+01 1.134084033966064453e+01 7.177690029144287109e+00 3.565429925918579102e+00 2.382030010223388672e+00 1.029434013366699219e+01 6.879799842834472656e+00 1.092794036865234375e+01 9.759349822998046875e+00 4.438270092010498047e+00 4.811600208282470703e+00 4.991179943084716797e+00 1.487823963165283203e+01 1.089414024353027344e+01 6.851349830627441406e+00 1.328334045410156250e+01 1.021753978729248047e+01 1.021123981475830078e+01 1.501904010772705078e+01 2.311840057373046875e+00 8.672690391540527344e+00 6.139319896697998047e+00 2.241359949111938477e+00 2.756069898605346680e+00 3.885109901428222656e+00 6.350709915161132812e+00 1.470343971252441406e+01 2.247859954833984375e+00 5.367849826812744141e+00 6.343339920043945312e+00 1.409914016723632812e+01 1.638010025024414062e+00 7.580210208892822266e+00 5.525579929351806641e+00 3.068850040435791016e+00 1.575530052185058594e+00 1.249024009704589844e+01 1.141413974761962891e+01 3.796600103378295898e+00