2.432579994201660156e-01 9.182909727096557617e-01 4.289180040359497070e-01 -9.507489800453186035e-01 -3.556303024291992188e+00 1.784302949905395508e+00 1.785851001739501953e+00 -2.150984048843383789e+00 8.457030057907104492e-01 -2.018900029361248016e-02 1.863950043916702271e-01 -2.138060033321380615e-01 -2.048139095306396484e+00 5.283470153808593750e-01 -9.407969713211059570e-01 2.975080013275146484e-01 -9.036250114440917969e-01 7.338579893112182617e-01 1.214879974722862244e-01 8.885970115661621094e-01 2.048669099807739258e+00 -7.391319870948791504e-01 1.408746957778930664e+00 -7.392029762268066406e-01 6.256920099258422852e-01 1.378010034561157227e+00 -2.316359043121337891e+00 1.583376049995422363e+00 -1.650352954864501953e+00 -1.849545001983642578e+00 -2.240515947341918945e+00 1.284531950950622559e+00 4.841209948062896729e-01 -2.159280031919479370e-01 4.883800148963928223e-01 7.557709813117980957e-01 -6.666889786720275879e-01 -4.494100064039230347e-02 -1.607850044965744019e-01 -1.132450029253959656e-01 -1.709318041801452637e+00 5.562520027160644531e-01 -1.275568008422851562e+00 1.461390972137451172e+00 9.005960226058959961e-01 3.173894882202148438e+00 -1.087685942649841309e+00 -1.714509010314941406e+00 -3.409900143742561340e-02 9.967800229787826538e-02 3.433820009231567383e-01 1.254329979419708252e-01 -5.708450078964233398e-01 -2.018702983856201172e+00 -3.224590122699737549e-01 1.631204009056091309e+00 5.890579819679260254e-01 -1.500989943742752075e-01 -4.497340023517608643e-01 2.345629930496215820e-01 1.109630942344665527e+00 -1.642936944961547852e+00 1.828526973724365234e+00 1.073238968849182129e+00 -1.201310008764266968e-01 2.395350039005279541e-01 6.561599969863891602e-01 3.019499965012073517e-02 1.007498979568481445e+00 1.484331965446472168e+00 1.438817024230957031e+00 -8.768420219421386719e-01 1.229277968406677246e+00 -1.164706945419311523e+00 1.357735991477966309e+00 -1.335880041122436523e+00 1.549579024314880371e+00 -1.961732983589172363e+00 -1.132933974266052246e+00 -8.190099895000457764e-02 9.738839864730834961e-01 4.017420113086700439e-01 -2.958639860153198242e-01 1.049930006265640259e-01 7.337179780006408691e-01 -7.939700037240982056e-02 -1.122768044471740723e+00 -3.097920119762420654e-01 5.407270193099975586e-01 -6.009680032730102539e-01 -7.583690285682678223e-01 -2.135726928710937500e+00 -5.403599739074707031e-01 -9.412090182304382324e-01 4.293290078639984131e-01 -3.207809925079345703e-01 7.386299967765808105e-02 -1.719794988632202148e+00 -4.627270102500915527e-01 1.269829988479614258e+00 -1.726849973201751709e-01 6.079729795455932617e-01 8.447669744491577148e-01 -2.367733955383300781e+00 1.210414052009582520e+00 -7.251369953155517578e-01 -3.794279992580413818e-01 -4.416329860687255859e-01 -6.437739729881286621e-01 -6.017730236053466797e-01 2.265253067016601562e+00 -8.690609931945800781e-01 1.352753043174743652e+00 3.467060029506683350e-01 8.395630121231079102e-01 1.746721029281616211e+00 7.120370268821716309e-01 2.065987110137939453e+00 1.037188053131103516e+00 -7.535359859466552734e-01 1.396823048591613770e+00 7.285689711570739746e-01 4.703010022640228271e-01 5.447000265121459961e-01 1.967779040336608887e+00 2.452789068222045898e+00 1.394289016723632812e+00 -2.619929909706115723e-01 3.947489857673645020e-01 -1.114719033241271973e+00 -1.680516004562377930e+00 -1.864477992057800293e+00 8.411170244216918945e-01 -9.740120172500610352e-01 3.831650018692016602e-01 -6.261199712753295898e-01 -1.021410942077636719e+00 -1.143203020095825195e+00 6.127600073814392090e-01 6.753640174865722656e-01 -1.642197012901306152e+00 1.315413951873779297e+00 -1.598757982254028320e+00 1.410499960184097290e-02 -1.116119995713233948e-01 -1.165369033813476562e+00 2.040880024433135986e-01 1.421719938516616821e-01 1.110550045967102051e+00 5.339319705963134766e-01 -4.272200167179107666e-02 -8.203110098838806152e-01 1.102050021290779114e-01 -1.387063026428222656e+00 4.024800062179565430e-01 1.076104044914245605e+00 -3.209019899368286133e-01 6.033999845385551453e-03 -2.386730015277862549e-01 -1.075248956680297852e+00 -1.056926965713500977e+00 1.003160953521728516e+00 -1.635656952857971191e+00 1.478322982788085938e+00 1.493420958518981934e+00 2.398375034332275391e+00 -1.929499953985214233e-01 5.821840167045593262e-01 -4.631170034408569336e-01 -5.905359983444213867e-01 1.901870071887969971e-01 1.881543993949890137e+00 1.024773001670837402e+00 6.810950040817260742e-01 5.370499938726425171e-02 1.390990018844604492e-01 -4.960719943046569824e-01 -1.198570013046264648e+00 1.030839979648590088e-01 5.858060121536254883e-01 9.105160236358642578e-01 6.760050058364868164e-01 -2.641319930553436279e-01 -1.976410001516342163e-01 -8.391100168228149414e-01 -3.836260139942169189e-01 -1.145680025219917297e-01 -6.977859735488891602e-01 -1.284505009651184082e+00 8.003379702568054199e-01 3.544099926948547363e-01 -5.903000235557556152e-01 5.204219818115234375e-01 -1.740707039833068848e+00 2.739753007888793945e+00 1.389767050743103027e+00 1.243883967399597168e+00 -7.278149724006652832e-01 -6.804419755935668945e-01 -1.703349947929382324e-01 9.798229932785034180e-01 -7.009490132331848145e-01 -1.968608975410461426e+00 -2.035187959671020508e+00 -8.660190105438232422e-01 6.130459904670715332e-01 8.365000039339065552e-02 1.089380010962486267e-01 -1.034130007028579712e-01 -1.972821950912475586e+00 -1.323662042617797852e+00 3.967440128326416016e-01 4.300230145454406738e-01 1.025786995887756348e+00 9.752500057220458984e-01 1.096740961074829102e+00 8.004239797592163086e-01 1.245766997337341309e+00 1.328305959701538086e+00 -8.973219990730285645e-01 -3.708519935607910156e-01 7.432519793510437012e-01 -1.217095971107482910e+00 5.229110121726989746e-01 -2.416920065879821777e-01 1.030241012573242188e+00 1.331789016723632812e+00 9.144889712333679199e-01 1.556369960308074951e-01 4.166840016841888428e-01 1.072077989578247070e+00 -3.192049860954284668e-01 2.070453882217407227e+00 1.799481987953186035e+00 -1.169224023818969727e+00 -1.983299016952514648e+00 -7.103750109672546387e-01 1.597609043121337891e+00 -8.500599861145019531e-02 -1.485126972198486328e+00 -4.157370030879974365e-01 -2.565430104732513428e-01 5.085799843072891235e-02 -5.507699847221374512e-01 1.201742053031921387e+00 -1.162158012390136719e+00 4.702070057392120361e-01 -1.762846946716308594e+00 -4.153150022029876709e-01 -1.085276007652282715e+00 2.634649872779846191e-01 3.872199952602386475e-01 -5.048720240592956543e-01 -1.466722965240478516e+00 3.708499968051910400e-01 -1.559967994689941406e+00 -3.772870004177093506e-01 -1.774394035339355469e+00 -2.885150015354156494e-01 -3.523379862308502197e-01 -3.655290007591247559e-01 -4.530189931392669678e-01 -6.981819868087768555e-01 1.601156949996948242e+00 1.613340020179748535e+00 -2.217279970645904541e-01 -2.014075040817260742e+00 -1.673306941986083984e+00 6.284369826316833496e-01 -1.275616049766540527e+00 -6.708310246467590332e-01 -9.608020186424255371e-01 1.122954010963439941e+00 -1.342386007308959961e+00 2.240367889404296875e+00 -3.692780137062072754e-01 -4.087780117988586426e-01 1.514263033866882324e+00 -9.980340003967285156e-01 1.053135037422180176e+00 -1.771728992462158203e+00 -4.350872039794921875e+00 -9.979339838027954102e-01 1.259932041168212891e+00 5.869259834289550781e-01 -1.309296965599060059e+00 -1.588229984045028687e-01 -1.107795953750610352e+00 -1.072330951690673828e+00 1.322360038757324219e+00 3.850130140781402588e-01 -9.903380274772644043e-01 -7.149980068206787109e-01 -1.175070032477378845e-01 1.434350013732910156e-01 2.192099988460540771e-01 8.074659705162048340e-01 2.089539051055908203e+00 -1.667826056480407715e+00 -1.146792054176330566e+00 -5.810109972953796387e-01 -1.498021960258483887e+00 -9.908210039138793945e-01 -8.688240051269531250e-01 -2.811059951782226562e-01 -6.839999929070472717e-03 -4.348379969596862793e-01 8.787599951028823853e-02 -1.724033951759338379e+00 -1.656699925661087036e-01 -3.644169867038726807e-01 2.399210035800933838e-01 -5.429959893226623535e-01 -2.933480143547058105e-01 1.528632044792175293e+00 -3.837650120258331299e-01 9.955800324678421021e-02 3.078899979591369629e-01 -4.662790000438690186e-01 -8.236400038003921509e-02 9.454510211944580078e-01 -7.121369838714599609e-01 1.776721954345703125e+00 1.194669961929321289e+00 1.351503968238830566e+00 2.170010060071945190e-01 1.786777973175048828e+00 3.730449974536895752e-01 2.235085010528564453e+00 -2.104232072830200195e+00 -4.999879896640777588e-01 3.749600052833557129e-01 -2.538800053298473358e-02 1.726599968969821930e-02 4.602319896221160889e-01 -2.711899876594543457e-01 -4.170796871185302734e+00 8.604660034179687500e-01 -1.649062991142272949e+00 -4.829419851303100586e-01 -6.106449961662292480e-01 -2.023469954729080200e-01 -2.395199984312057495e-01 -3.521740138530731201e-01 -8.851090073585510254e-01 -1.903239935636520386e-01 2.194137096405029297e+00 5.916550159454345703e-01 9.099700301885604858e-02 1.809015035629272461e+00 -5.721899867057800293e-01 1.171198964118957520e+00 -1.922470033168792725e-01 -4.282329976558685303e-01 -1.831649988889694214e-01 1.085909977555274963e-01 1.445000022649765015e-01 -1.242722988128662109e+00 1.983186960220336914e+00 -1.019273996353149414e+00 -7.677130103111267090e-01 4.383620023727416992e-01 1.987599954009056091e-02 1.184831023216247559e+00 1.013659954071044922e+00 -2.454015016555786133e+00 -6.515409946441650391e-01 -9.207109808921813965e-01 -5.155929923057556152e-01 -4.836480021476745605e-01 8.654499799013137817e-02 -3.895590007305145264e-01 6.355289816856384277e-01 -7.351629734039306641e-01 4.900160133838653564e-01 6.136159896850585938e-01 1.241245985031127930e+00 9.446259737014770508e-01 7.890939712524414062e-01 1.498060941696166992e+00 -7.772999815642833710e-03 -6.560419797897338867e-01 -1.258932948112487793e+00 1.187250018119812012e-01 2.027489989995956421e-01 4.149529933929443359e-01 -4.820320010185241699e-01 7.335460186004638672e-01 3.133029937744140625e+00 -2.396081924438476562e+00 -1.096567988395690918e+00 5.149530172348022461e-01 -3.349879980087280273e-01 -5.196890234947204590e-01 -1.388390064239501953e-01 4.604780077934265137e-01 -2.574400007724761963e-01 -5.913590192794799805e-01 1.444009989500045776e-01 3.193950057029724121e-01 1.181299984455108643e-02 -3.206599950790405273e-01 -1.312810033559799194e-01 1.453418016433715820e+00 -6.416090130805969238e-01 2.766039967536926270e-01 -6.504499912261962891e-02 1.588820070028305054e-01 5.108489990234375000e-01 1.458700001239776611e-02 -5.315340161323547363e-01 -8.724930286407470703e-01 -1.500589996576309204e-01 -2.758999913930892944e-02 -6.809980273246765137e-01 -2.255250066518783569e-01 -1.109828948974609375e+00 9.378200024366378784e-02 -5.041049718856811523e-01 8.854410052299499512e-01 1.348216056823730469e+00 -6.392130255699157715e-01 1.320809006690979004e+00 5.875409841537475586e-01 8.869100213050842285e-01 -7.956870198249816895e-01 6.975219845771789551e-01 -3.989770114421844482e-01 -1.035742998123168945e+00 5.404850244522094727e-01 -1.253646969795227051e+00 -1.629890054464340210e-01 -1.761170029640197754e-01 -1.088662028312683105e+00 7.155470252037048340e-01 -2.042890042066574097e-01 -5.125010013580322266e-01 2.054170072078704834e-01 3.011209964752197266e-01 7.752709984779357910e-01 -1.391706943511962891e+00 -5.506999790668487549e-03 -2.920340001583099365e-01 -2.786400020122528076e-01 -5.978540182113647461e-01 -6.349299848079681396e-02 1.426162958145141602e+00 -4.983500018715858459e-02 4.396800100803375244e-01 6.772100180387496948e-02 1.420164942741394043e+00 -1.388432025909423828e+00 4.042170047760009766e-01 2.269569933414459229e-01 1.215709969401359558e-01 -5.093510150909423828e-01 -4.984889924526214600e-01 -2.575530111789703369e-01 5.778700113296508789e-01 -1.634410023689270020e-01 -3.220790028572082520e-01 2.034669965505599976e-01 1.579560041427612305e-01 -9.519219994544982910e-01 -3.094879984855651855e-01 -2.022700011730194092e-01 -1.341760009527206421e-01 1.230417966842651367e+00 9.844080209732055664e-01 7.023000121116638184e-01 -6.792240142822265625e-01 4.591319859027862549e-01 2.330212116241455078e+00 -2.422869950532913208e-01 1.246016979217529297e+00 -4.056659936904907227e-01 -2.858799993991851807e-01 -2.918133974075317383e+00 9.863960146903991699e-01 6.874750256538391113e-01 4.613229930400848389e-01 2.240960001945495605e-01 5.790129899978637695e-01 -6.548789739608764648e-01 7.513260245323181152e-01 4.756600037217140198e-02 5.495700240135192871e-01 -8.285909891128540039e-01 -6.458730101585388184e-01 -8.793699741363525391e-02 -9.609699994325637817e-02 -6.816700100898742676e-02 -2.863239943981170654e-01 -5.040959715843200684e-01 -1.665350049734115601e-01 2.725110054016113281e-01 -1.869460046291351318e-01 1.586128950119018555e+00 -5.507469773292541504e-01 -5.407540202140808105e-01 -1.345420032739639282e-01 1.137240007519721985e-01 3.259960114955902100e-01 1.417039930820465088e-01 4.128150045871734619e-01 3.465859889984130859e-01 -3.091059923171997070e-01 -8.411020040512084961e-01 2.769869863986968994e-01 -8.445850014686584473e-01 -1.243942975997924805e+00 -9.276299923658370972e-02 -3.362239897251129150e-01 -3.847750127315521240e-01 -3.954350054264068604e-01 4.086399823427200317e-02 -1.458752036094665527e+00 1.667422056198120117e+00 -1.394145965576171875e+00 -6.288449764251708984e-01 -3.000169992446899414e-01 4.994240105152130127e-01 3.841530084609985352e-01 -2.142460048198699951e-01 -8.093429803848266602e-01 -1.272791028022766113e+00 -9.887800216674804688e-01 1.301500052213668823e-01 1.481799967586994171e-02 4.821760058403015137e-01 -1.070268034934997559e+00 -7.897199690341949463e-02 -1.345893025398254395e+00 1.078534960746765137e+00 2.191759943962097168e-01 2.272039949893951416e-01 -4.699000157415866852e-03 -1.224743962287902832e+00 1.305120944976806641e+00 1.353706002235412598e+00 -1.539963006973266602e+00 6.539180278778076172e-01 -7.778170108795166016e-01 1.718070983886718750e+00 -7.020140290260314941e-01 1.272675991058349609e+00 6.597970128059387207e-01 8.245519995689392090e-01 -1.176355004310607910e+00 -9.661599993705749512e-02 3.030340075492858887e-01 -2.463109940290451050e-01 -1.399338960647583008e+00 -2.972519993782043457e-01 9.795460104942321777e-01 -2.361339926719665527e-01 -1.553239971399307251e-01 1.510576963424682617e+00 -3.733339905738830566e-01 4.814159870147705078e-01 7.660199701786041260e-02 1.892559975385665894e-01 1.942059993743896484e-01 4.450930058956146240e-01 1.091089993715286255e-01 2.767620086669921875e-01 7.169999927282333374e-02 -2.939450144767761230e-01 -6.668009757995605469e-01 -2.619690001010894775e-01 8.745200037956237793e-01 1.637647986412048340e+00 7.324699759483337402e-01 8.432809710502624512e-01 -7.336329817771911621e-01 -2.346400022506713867e-01 -6.594079732894897461e-01 7.196300029754638672e-01 -5.586240291595458984e-01 3.264330029487609863e-01 1.818570047616958618e-01 -1.201408028602600098e+00 -1.088825941085815430e+00 1.488124966621398926e+00 -1.129480004310607910e-01 5.985999945551156998e-03 -1.295090019702911377e-01 5.346399918198585510e-02 6.129119992256164551e-01 2.100557088851928711e+00 5.258830189704895020e-01 -1.164770960807800293e+00 -1.240000012330710888e-03 4.567899927496910095e-02 -2.701370120048522949e-01 3.730159997940063477e-01 -2.544229924678802490e-01 1.124331951141357422e+00 2.295670062303543091e-01 2.430959939956665039e-01 2.376279979944229126e-01 -5.587840080261230469e-01 -1.123751044273376465e+00 1.960600018501281738e-01 -4.268510043621063232e-01 3.887940049171447754e-01 -3.927190005779266357e-01 -8.928930163383483887e-01 -9.701049923896789551e-01 -1.945420026779174805e+00 -1.409499999135732651e-02 1.299695014953613281e+00 2.179110050201416016e-01 1.127877950668334961e+00 -6.055250167846679688e-01 4.574669897556304932e-01 -8.792369961738586426e-01 -7.026950120925903320e-01 -1.466500014066696167e-01 -5.940340161323547363e-01 7.240799814462661743e-02 3.238849937915802002e-01 -6.722570061683654785e-01 -4.739690124988555908e-01 3.762800097465515137e-01 -8.180410265922546387e-01 -5.269759893417358398e-01 -1.953698039054870605e+00 -4.045400023460388184e-02 -8.900920152664184570e-01 -2.234103918075561523e+00 -2.704000100493431091e-03 -5.188739895820617676e-01 7.313399910926818848e-01 9.613639712333679199e-01 -3.988409936428070068e-01 -1.565605044364929199e+00 -3.023610115051269531e-01 -2.574979960918426514e-01 1.552510023117065430e+00 -2.592029094696044922e+00 -1.364565014839172363e+00 6.118800044059753418e-01 3.133490085601806641e-01 -1.670449972152709961e-01 5.606700181961059570e-01 1.187746047973632812e+00 2.020462989807128906e+00 1.364250034093856812e-01 1.091184973716735840e+00 3.429780006408691406e-01 3.361749947071075439e-01 6.804270148277282715e-01 -1.829250007867813110e-01 -4.143210053443908691e-01 1.079380989074707031e+00 3.398790061473846436e-01 -1.930550038814544678e-01 4.550000012386590242e-04 5.665700137615203857e-02 -4.198580086231231689e-01 -8.349700272083282471e-02 4.706749916076660156e-01 8.342819809913635254e-01 9.062340259552001953e-01 3.917799890041351318e-01 -3.274599835276603699e-02 -1.517367959022521973e+00 9.416019916534423828e-01 -7.633699774742126465e-01 9.225199818611145020e-01 -4.543960094451904297e-01 4.229100048542022705e-02 1.110558032989501953e+00 -3.927899897098541260e-01 2.022310048341751099e-01 -1.898660063743591309e-01 -7.968149781227111816e-01 -2.717700041830539703e-02 8.078070282936096191e-01 2.529899962246417999e-02 1.343714952468872070e+00 -6.574149727821350098e-01 -9.177839756011962891e-01 -2.259549945592880249e-01 3.135640025138854980e-01 5.037069916725158691e-01 1.801760047674179077e-01 -1.132297039031982422e+00 3.382680118083953857e-01 -6.074609756469726562e-01 1.839669942855834961e-01 -5.642830133438110352e-01 8.435450196266174316e-01 3.325700014829635620e-02 9.612800180912017822e-02 3.602739870548248291e-01 9.552200138568878174e-02 6.666000001132488251e-03 7.502970099449157715e-01 1.052495956420898438e+00 -1.014662981033325195e+00 7.394539713859558105e-01 -9.926009774208068848e-01 -1.185289993882179260e-01 -2.333689928054809570e-01 -1.722978949546813965e+00 -1.770509004592895508e+00 8.690999820828437805e-03 4.885099828243255615e-02 -1.233249977231025696e-01 -8.344399929046630859e-02 1.660470068454742432e-01 2.624000050127506256e-02 1.046334981918334961e+00 -5.097050070762634277e-01 -1.432230949401855469e+00 -2.306824922561645508e+00 2.013361930847167969e+00 1.144750952720642090e+00 -1.260170042514801025e-01 5.230460166931152344e-01 7.251899838447570801e-01 -1.081019997596740723e+00 -6.772909760475158691e-01 -6.401759982109069824e-01 -1.202559992671012878e-01 2.438230067491531372e-01 9.669800102710723877e-02 -5.795999988913536072e-02 1.108530014753341675e-01 -1.122316956520080566e+00 4.836460053920745850e-01 4.505830109119415283e-01 -2.958120107650756836e-01 -8.666899800300598145e-01 -2.252500057220458984e-01 -1.385249942541122437e-01 -4.404689967632293701e-01 -1.025035023689270020e+00 1.609430015087127686e-01 1.312057971954345703e+00 -4.592530131340026855e-01 4.941160082817077637e-01 3.635309934616088867e-01 4.543780088424682617e-01 -4.310890138149261475e-01 8.015990257263183594e-01 5.650159716606140137e-01 -5.800399929285049438e-02 -3.388299942016601562e-01 1.257079988718032837e-01 1.625381946563720703e+00 -7.505189776420593262e-01 6.516759991645812988e-01 -1.617600023746490479e-01 2.380480021238327026e-01 -4.137200117111206055e-02 -1.562709957361221313e-01 4.743099957704544067e-02 2.746889889240264893e-01 2.457679957151412964e-01 4.215599894523620605e-01 4.824090003967285156e-01 -5.100539922714233398e-01 -5.420489907264709473e-01 -4.975430071353912354e-01 7.009620070457458496e-01 2.725119888782501221e-01 1.359563946723937988e+00 -1.778993964195251465e+00 -1.239676952362060547e+00 -8.214139938354492188e-01 4.158590137958526611e-01 1.577139943838119507e-01 3.557600080966949463e-01 -5.214999895542860031e-03 8.542010188102722168e-01 1.867205977439880371e+00 1.656373023986816406e+00 -9.689919948577880859e-01 -7.926599681377410889e-02 -3.001990020275115967e-01 -7.004100084304809570e-02 -9.103199839591979980e-02 4.333440065383911133e-01 6.934720277786254883e-01 3.786889910697937012e-01 -1.326267957687377930e+00 4.192300140857696533e-02 1.247849985957145691e-01 5.634750127792358398e-01 7.522640228271484375e-01 -1.993779987096786499e-01 1.071230024099349976e-01 -4.050540030002593994e-01 1.569999940693378448e-02 4.040049910545349121e-01 1.191769987344741821e-01 -6.319800019264221191e-02 -3.298169970512390137e-01 1.261669993400573730e-01 1.618019938468933105e-01 -4.370959997177124023e-01 3.935829997062683105e-01 -3.613170087337493896e-01 1.012020036578178406e-01 -9.158399701118469238e-02 -1.977239996194839478e-01 1.265748977661132812e+00 1.492102026939392090e+00 -4.781700074672698975e-01 3.636249899864196777e-01 -1.268157958984375000e+00 -1.280951976776123047e+00 -6.514400243759155273e-01 4.585109949111938477e-01 -4.176239967346191406e-01 -2.648980021476745605e-01 -3.190020024776458740e-01 -2.842560112476348877e-01 1.018460020422935486e-01 2.650809884071350098e-01 -3.203189969062805176e-01 -7.404490113258361816e-01 -1.003103017807006836e+00 -1.652484059333801270e+00 -8.820570111274719238e-01 -1.225744962692260742e+00 -7.759619951248168945e-01 -5.051860213279724121e-01 1.044960021972656250e+00 7.511000037193298340e-01 -2.641640007495880127e-01 -6.854580044746398926e-01 -8.744419813156127930e-01 6.319940090179443359e-01 -3.127000033855438232e-01 5.873899906873703003e-02 1.347779929637908936e-01 1.643870025873184204e-01 -1.193180009722709656e-01 4.921280145645141602e-01 4.452280104160308838e-01 -5.832020044326782227e-01 -8.312789797782897949e-01 6.071300059556961060e-02 8.190039992332458496e-01 -5.260999873280525208e-02 -2.139116048812866211e+00 -1.770710051059722900e-01 1.793980956077575684e+00 2.962270081043243408e-01 -2.556509971618652344e-01 -1.392145991325378418e+00 -5.578799918293952942e-02 -9.028559923171997070e-01 -7.111859917640686035e-01 3.083429932594299316e-01 5.951269865036010742e-01 7.760469913482666016e-01 2.884559929370880127e-01 8.110500127077102661e-02 2.216670066118240356e-01 -7.233989834785461426e-01 3.615030050277709961e-01 -5.355619788169860840e-01 -4.088389873504638672e-01 -6.127020120620727539e-01 3.971300125122070312e-01 1.192729994654655457e-01 6.007769703865051270e-01 -5.359699949622154236e-02 1.127519965171813965e+00 -4.104000031948089600e-01 -1.106759980320930481e-01 1.329223036766052246e+00 -3.021430075168609619e-01 -1.236580014228820801e-01 9.613590240478515625e-01 2.088589966297149658e-01 4.780350029468536377e-01 -3.421280086040496826e-01 -4.476400092244148254e-02 4.134700074791908264e-02 6.644849777221679688e-01 8.185400068759918213e-02 -8.242740035057067871e-01 8.721629977226257324e-01 5.592479705810546875e-01 -5.423910021781921387e-01 1.568879932165145874e-01 4.152140021324157715e-01 1.765586018562316895e+00 4.474889934062957764e-01 6.155530214309692383e-01 -1.945389956235885620e-01 -9.085019826889038086e-01 1.262884974479675293e+00 -8.075019717216491699e-01 -2.718369960784912109e-01 7.718949913978576660e-01 2.737109959125518799e-01 -4.393979907035827637e-01 -1.963430047035217285e-01 3.300040066242218018e-01 4.995700120925903320e-01 1.792470067739486694e-01 3.909209966659545898e-01 1.356431961059570312e+00 -2.082490026950836182e-01 -8.649290204048156738e-01 -8.573889732360839844e-01 1.597175955772399902e+00 1.107643961906433105e+00 4.506480097770690918e-01 -8.366499841213226318e-02 9.800059795379638672e-01 6.808149814605712891e-01 -2.719509899616241455e-01 3.941409885883331299e-01 7.209410071372985840e-01 -1.299219012260437012e+00 -7.177940011024475098e-01 -4.763930141925811768e-01 -1.022907018661499023e+00 2.475769966840744019e-01 5.955190062522888184e-01 -4.065999984741210938e-01 9.201300144195556641e-02 -5.791580080986022949e-01 -6.353020071983337402e-01 4.041799902915954590e-02 5.720940232276916504e-01 -6.781679987907409668e-01 1.541017055511474609e+00 -1.081982016563415527e+00 -4.158090054988861084e-01 9.834480285644531250e-01 -1.504100020974874496e-02 2.155913114547729492e+00 1.179244041442871094e+00 6.892420053482055664e-01 -1.090962052345275879e+00 -2.713299989700317383e-01 9.815319776535034180e-01 -2.752659916877746582e-01 1.634290069341659546e-01 8.143110275268554688e-01 -4.517880082130432129e-01 4.558210074901580811e-01 -6.595559716224670410e-01 -5.151619911193847656e-01 2.712212085723876953e+00 1.027392983436584473e+00 -3.132260143756866455e-01 -3.728089928627014160e-01 1.811719983816146851e-01 2.812530100345611572e-01 1.180088043212890625e+00 1.579944968223571777e+00 -1.174155950546264648e+00 -1.911330074071884155e-01 1.268373012542724609e+00 8.193230032920837402e-01 -1.805360019207000732e-01 -4.920989871025085449e-01 -1.338579952716827393e-01 -6.945000290870666504e-01 2.463369965553283691e-01 6.020399928092956543e-02 5.432339906692504883e-01 -3.239740133285522461e-01 -1.221660003066062927e-01 -5.421820282936096191e-01 8.995869755744934082e-01 4.906249940395355225e-01 4.051460027694702148e-01 4.190619885921478271e-01 7.205499708652496338e-02 -1.768890023231506348e-01 -2.404776096343994141e+00 1.346706986427307129e+00 8.810889720916748047e-01 2.468200027942657471e-01 -9.374400228261947632e-02 6.185250282287597656e-01 1.126289963722229004e-01 -1.871299929916858673e-02 5.128780007362365723e-01 -2.167750000953674316e-01 -1.044280007481575012e-01 3.127070069313049316e-01 -1.858800053596496582e-01 2.165240049362182617e-01 -5.917149782180786133e-01 4.545049965381622314e-01 4.132010042667388916e-01 3.774099946022033691e-01 1.048972964286804199e+00 7.381929755210876465e-01 -4.744940102100372314e-01 5.023639798164367676e-01 -2.545600011944770813e-02 1.186228036880493164e+00 6.673290133476257324e-01 5.650879740715026855e-01 -1.700830012559890747e-01 4.430249929428100586e-01 1.047168970108032227e+00 -1.454439043998718262e+00 1.907300017774105072e-02 -8.886600285768508911e-02 -1.655649989843368530e-01 2.193800061941146851e-01 3.184230029582977295e-01 7.813599705696105957e-02 5.649179816246032715e-01 -1.830641984939575195e+00 -1.390082955360412598e+00 -2.411500066518783569e-01 -2.911300063133239746e-01 -2.983579933643341064e-01 1.328974962234497070e+00 -2.520399987697601318e-01 1.659879982471466064e-01 -1.190999988466501236e-03 -2.007489949464797974e-01 -4.303390085697174072e-01 4.761089980602264404e-01 3.770110011100769043e-01 5.459589958190917969e-01 -1.146955966949462891e+00 -2.752639949321746826e-01 -1.356799960136413574e+00 1.567460000514984131e-01 -5.073850154876708984e-01 1.366608023643493652e+00 7.346670031547546387e-01 2.278279960155487061e-01 4.076530039310455322e-01 -9.773000329732894897e-02 1.166473984718322754e+00 7.538579702377319336e-01 5.387470126152038574e-01 -1.241900026798248291e-02 -2.056410014629364014e-01 -1.085417032241821289e+00 -2.001168966293334961e+00 3.558340072631835938e-01 -1.907200068235397339e-01 -9.415410161018371582e-01 -2.633059918880462646e-01 2.818860113620758057e-01 -6.108499765396118164e-01 2.170259952545166016e-01 2.925800085067749023e+00 7.492999732494354248e-02 1.768146038055419922e+00 -7.862899899482727051e-01 -2.012190073728561401e-01 2.050970047712326050e-01 -1.032159999012947083e-01 -2.676819860935211182e-01 1.412820070981979370e-01 -1.511803984642028809e+00 -1.487239003181457520e+00 -1.087617039680480957e+00 1.047597050666809082e+00 -1.332631945610046387e+00 -1.337320059537887573e-01 4.291749894618988037e-01 5.539050102233886719e-01 2.877959907054901123e-01 4.396700114011764526e-02 7.501000165939331055e-01 7.464619874954223633e-01 1.425933957099914551e+00 -6.408460140228271484e-01 6.100100278854370117e-01 8.513280153274536133e-01 -1.123428940773010254e+00 -3.041799925267696381e-02 5.146930217742919922e-01 -7.074499875307083130e-02 3.231280148029327393e-01 -2.341530025005340576e-01 2.286279946565628052e-01 3.795309960842132568e-01 3.705950081348419189e-01 -2.306582927703857422e+00 1.420462012290954590e+00 -5.186219811439514160e-01 -1.657350063323974609e-01 6.996049880981445312e-01 -1.741971969604492188e+00 -2.752900123596191406e-01 -2.657169997692108154e-01 3.563449978828430176e-01 -3.578819930553436279e-01 -6.339150071144104004e-01 8.094480037689208984e-01 5.251160264015197754e-01 -2.405149936676025391e-01 4.033389985561370850e-01 -6.388220191001892090e-01 -1.346729993820190430e-01 3.353120088577270508e-01 -1.504680067300796509e-01 1.658697009086608887e+00 8.176259994506835938e-01 7.423380017280578613e-01 7.942979931831359863e-01 5.382180213928222656e-01 -3.750469982624053955e-01 5.221229791641235352e-01 6.064170002937316895e-01 -2.319099940359592438e-02 -1.104980036616325378e-01 -1.176843047142028809e+00 -7.611860036849975586e-01 9.304069876670837402e-01 -2.176180034875869751e-01 1.593500003218650818e-02 -2.550289928913116455e-01 1.515009999275207520e-01 -3.431300073862075806e-02 -2.922059893608093262e-01 -3.065229952335357666e-01 -7.753840088844299316e-01 3.469400107860565186e-02 -4.790849983692169189e-01 -1.320731997489929199e+00 -5.095350146293640137e-01 5.957899987697601318e-02 -1.358525037765502930e+00 7.329310178756713867e-01 -8.197569847106933594e-01 -4.285899922251701355e-02 -6.613529920578002930e-01 1.962040066719055176e-01 3.444100171327590942e-02 2.242839932441711426e-01 -8.329600095748901367e-02 3.658890128135681152e-01 -3.950389921665191650e-01 -5.616199970245361328e-01 2.649700082838535309e-02 -7.396640181541442871e-01 -2.928400039672851562e-02 1.171888947486877441e+00 -3.374480009078979492e-01