-2.162046277917821779e+00 -1.319798312048894751e+00 2.748760618695860955e-02 -1.319798312048894751e+00 -3.758911421539214537e+00 4.126885833518853519e-02 2.748760618695860955e-02 4.126885833518853519e-02 -2.701106696525690687e+00
