
     Program PWSCF v.5.4.0 starts on 22Sep2019 at 19:39:11 

     This program is part of the open-source Quantum ESPRESSO suite
     for quantum simulation of materials; please cite
         "P. Giannozzi et al., J. Phys.:Condens. Matter 21 395502 (2009);
          URL http://www.quantum-espresso.org", 
     in publications or presentations arising from this work. More details at
     http://www.quantum-espresso.org/quote

           HOST :    @host@
           ARCH :    
             CC :    cc
            CPP :    cpp
            F90 :    mpif90
            F77 :    gfortran
         DFLAGS :    -D__GFORTRAN -D__STD_F95 -D__FFTW3 -D__MPI -D__PARA
      BLAS LIBS :    -lopenblas
    LAPACK LIBS :    -lopenblas
       FFT LIBS :    -lfftw3
      MASS LIBS :    

     Parallel version (MPI), running on    28 processors
     R & G space division:  proc/nbgrp/npool/nimage =      28
     Waiting for input...
     Reading input from standard input
Warning: card &IONS ignored
Warning: card / ignored
Warning: card &CELL ignored
Warning: card / ignored

     Current dimensions of program PWSCF are:
     Max number of different atomic species (ntypx) = 10
     Max number of k-points (npk) =  40000
     Max angular momentum in pseudopotentials (lmaxx) =  3

     IMPORTANT: XC functional enforced from input :
     Exchange-correlation      = PBE ( 1  4  3  4 0 0)
     Any further DFT definition will be discarded
     Please, verify this is what you really want


     gamma-point specific algorithms are used

     Subspace diagonalization in iterative solution of the eigenvalue problem:
     a serial algorithm will be used


     Parallelization info
     --------------------
     sticks:   dense  smooth     PW     G-vecs:    dense   smooth      PW
     Min         445     445    110                37558    37558    4694
     Max         448     448    112                37564    37564    4708
     Sum       12517   12517   3125              1051747  1051747  131683
     Tot        6259    6259   1563



     bravais-lattice index     =            1
     lattice parameter (alat)  =      18.8973  a.u.
     unit-cell volume          =    6748.3346 (a.u.)^3
     number of atoms/cell      =            5
     number of atomic types    =            2
     number of electrons       =         8.00
     number of Kohn-Sham states=            4
     kinetic-energy cutoff     =     110.0000  Ry
     charge density cutoff     =     440.0000  Ry
     convergence threshold     =      1.0E-06
     mixing beta               =       0.5000
     number of iterations used =            8  plain     mixing
     Exchange-correlation      = PBE ( 1  4  3  4 0 0)

     celldm(1)=  18.897261  celldm(2)=   0.000000  celldm(3)=   0.000000
     celldm(4)=   0.000000  celldm(5)=   0.000000  celldm(6)=   0.000000

     crystal axes: (cart. coord. in units of alat)
               a(1) = (   1.000000   0.000000   0.000000 )  
               a(2) = (   0.000000   1.000000   0.000000 )  
               a(3) = (   0.000000   0.000000   1.000000 )  

     reciprocal axes: (cart. coord. in units 2 pi/alat)
               b(1) = (  1.000000  0.000000  0.000000 )  
               b(2) = (  0.000000  1.000000  0.000000 )  
               b(3) = (  0.000000  0.000000  1.000000 )  


     PseudoPot. # 1 for  H read from file:
     ../pseudo/H.tm.pbe.UPF
     MD5 check sum: 4b614d66af87240b7a5107bfa527a767
     Pseudo is Norm-conserving, Zval =  1.0
     Generated using "atomic" code by A. Dal Corso  v.5.2.0
     Using radial grid of  929 points,  0 beta functions with: 

     PseudoPot. # 2 for  C read from file:
     ../pseudo/C.tm.pbe.UPF
     MD5 check sum: a4f27fcb9b24331b00ace8e732a7e062
     Pseudo is Norm-conserving, Zval =  4.0
     Generated using "atomic" code by A. Dal Corso  v.5.2.0
     Using radial grid of 1073 points,  1 beta functions with: 
                l(1) =   1

     atomic species   valence    mass     pseudopotential
        H              1.00     1.00000      H( 1.00)
        C              4.00     1.00000      C( 1.00)

     No symmetry found



   Cartesian axes

     site n.     atom                  positions (alat units)
         1           H   tau(   1) = (   0.5243130   0.3824610   0.3512950  )
         2           H   tau(   2) = (   0.3832280   0.4572770   0.4271120  )
         3           H   tau(   3) = (   0.5377320   0.5433900   0.4277640  )
         4           H   tau(   4) = (   0.5175090   0.4026080   0.5359370  )
         5           C   tau(   5) = (   0.4924260   0.4463250   0.4370800  )

     number of k points=     1
                       cart. coord. in units 2pi/alat
        k(    1) = (   0.0000000   0.0000000   0.0000000), wk =   2.0000000

     Dense  grid:   525874 G-vectors     FFT dimensions: ( 128, 128, 128)

     Largest allocated arrays     est. size (Mb)     dimensions
        Kohn-Sham Wavefunctions         0.14 Mb     (    2354,    4)
        NL pseudopotentials             0.11 Mb     (    2354,    3)
        Each V/rho on FFT grid          1.25 Mb     (   81920)
        Each G-vector array             0.14 Mb     (   18782)
        G-vector shells                 0.02 Mb     (    2785)
     Largest temporary arrays     est. size (Mb)     dimensions
        Auxiliary wavefunctions         0.29 Mb     (    2354,   16)
        Each subspace H/S matrix        0.00 Mb     (      16,   16)
        Each <psi_i|beta_j> matrix      0.00 Mb     (       3,    4)
        Arrays for rho mixing          10.00 Mb     (   81920,    8)

     Initial potential from superposition of free atoms
     Check: negative starting charge=   -0.000386

     starting charge    7.99992, renormalised to    8.00000

     negative rho (up, down):  3.859E-04 0.000E+00
     Starting wfc are    8 randomized atomic wfcs

     total cpu time spent up to now is        2.9 secs

     per-process dynamical memory:   430.8 Mb

     Self-consistent Calculation

     iteration #  1     ecut=   110.00 Ry     beta=0.50
     Davidson diagonalization with overlap
     ethr =  1.00E-02,  avg # of iterations =  2.0

     negative rho (up, down):  1.824E-04 0.000E+00

     total cpu time spent up to now is        3.4 secs

     total energy              =     -16.02061966 Ry
     Harris-Foulkes estimate   =     -16.40527795 Ry
     estimated scf accuracy    <       0.68367119 Ry

     iteration #  2     ecut=   110.00 Ry     beta=0.50
     Davidson diagonalization with overlap
     ethr =  8.55E-03,  avg # of iterations =  2.0

     negative rho (up, down):  9.581E-05 0.000E+00

     total cpu time spent up to now is        4.0 secs

     total energy              =     -16.15224531 Ry
     Harris-Foulkes estimate   =     -16.17160341 Ry
     estimated scf accuracy    <       0.05028313 Ry

     iteration #  3     ecut=   110.00 Ry     beta=0.50
     Davidson diagonalization with overlap
     ethr =  6.29E-04,  avg # of iterations =  1.0

     negative rho (up, down):  5.211E-06 0.000E+00

     total cpu time spent up to now is        4.6 secs

     total energy              =     -16.15058252 Ry
     Harris-Foulkes estimate   =     -16.15605248 Ry
     estimated scf accuracy    <       0.01149708 Ry

     iteration #  4     ecut=   110.00 Ry     beta=0.50
     Davidson diagonalization with overlap
     ethr =  1.44E-04,  avg # of iterations =  3.0

     negative rho (up, down):  5.085E-06 0.000E+00

     total cpu time spent up to now is        5.1 secs

     total energy              =     -16.15247128 Ry
     Harris-Foulkes estimate   =     -16.15482513 Ry
     estimated scf accuracy    <       0.00541171 Ry

     iteration #  5     ecut=   110.00 Ry     beta=0.50
     Davidson diagonalization with overlap
     ethr =  6.76E-05,  avg # of iterations =  2.0

     negative rho (up, down):  2.725E-06 0.000E+00

     total cpu time spent up to now is        5.6 secs

     total energy              =     -16.15288746 Ry
     Harris-Foulkes estimate   =     -16.15298709 Ry
     estimated scf accuracy    <       0.00025803 Ry

     iteration #  6     ecut=   110.00 Ry     beta=0.50
     Davidson diagonalization with overlap
     ethr =  3.23E-06,  avg # of iterations =  3.0

     negative rho (up, down):  8.117E-08 0.000E+00

     total cpu time spent up to now is        6.1 secs

     total energy              =     -16.15300885 Ry
     Harris-Foulkes estimate   =     -16.15300614 Ry
     estimated scf accuracy    <       0.00000562 Ry

     iteration #  7     ecut=   110.00 Ry     beta=0.50
     Davidson diagonalization with overlap
     ethr =  7.02E-08,  avg # of iterations =  3.0

     total cpu time spent up to now is        6.6 secs

     total energy              =     -16.15300579 Ry
     Harris-Foulkes estimate   =     -16.15301173 Ry
     estimated scf accuracy    <       0.00001270 Ry

     iteration #  8     ecut=   110.00 Ry     beta=0.50
     Davidson diagonalization with overlap
     ethr =  7.02E-08,  avg # of iterations =  2.0

     total cpu time spent up to now is        7.1 secs

     End of self-consistent calculation

          k = 0.0000 0.0000 0.0000 ( 65842 PWs)   bands (ev):

   -16.7983  -9.3820  -9.2860  -9.0222

     highest occupied level (ev):    -9.0222

!    total energy              =     -16.15300718 Ry
     Harris-Foulkes estimate   =     -16.15300746 Ry
     estimated scf accuracy    <       0.00000055 Ry

     The total energy is the sum of the following terms:

     one-electron contribution =     -40.09298915 Ry
     hartree contribution      =      20.87074643 Ry
     xc contribution           =      -6.33018495 Ry
     ewald contribution        =       9.39942050 Ry

     convergence has been achieved in   8 iterations

     Forces acting on atoms (Ry/au):

     atom    1 type  1   force =     0.00252420    0.00791812    0.02503839
     atom    2 type  1   force =     0.00410985    0.00099394    0.00773664
     atom    3 type  1   force =     0.01330546    0.02475866   -0.00196836
     atom    4 type  1   force =    -0.00261149    0.00094747   -0.02010593
     atom    5 type  2   force =    -0.01732802   -0.03461819   -0.01070074

     Total force =     0.059940     Total SCF correction =     0.000652


     entering subroutine stress ...

          total   stress  (Ry/bohr**3)                   (kbar)     P=   -0.58
  -0.00000144   0.00000362  -0.00000179         -0.21      0.53     -0.26
   0.00000362   0.00000331  -0.00000231          0.53      0.49     -0.34
  -0.00000179  -0.00000231  -0.00001364         -0.26     -0.34     -2.01


     init_run     :      2.45s CPU      2.49s WALL (       1 calls)
     electrons    :      4.23s CPU      4.27s WALL (       1 calls)
     forces       :      0.91s CPU      0.91s WALL (       1 calls)
     stress       :      1.13s CPU      1.14s WALL (       1 calls)

     Called by init_run:
     wfcinit      :      0.10s CPU      0.10s WALL (       1 calls)
     potinit      :      1.02s CPU      1.04s WALL (       1 calls)

     Called by electrons:
     c_bands      :      2.01s CPU      2.02s WALL (       8 calls)
     sum_band     :      0.44s CPU      0.44s WALL (       8 calls)
     v_of_rho     :      1.74s CPU      1.78s WALL (       9 calls)
     mix_rho      :      0.21s CPU      0.21s WALL (       8 calls)

     Called by c_bands:
     init_us_2    :      0.04s CPU      0.04s WALL (      17 calls)
     regterg      :      1.98s CPU      1.99s WALL (       8 calls)

     Called by sum_band:

     Called by *egterg:
     h_psi        :      2.02s CPU      2.02s WALL (      27 calls)
     g_psi        :      0.01s CPU      0.01s WALL (      18 calls)
     rdiaghg      :      0.00s CPU      0.00s WALL (      26 calls)

     Called by h_psi:
     add_vuspsi   :      0.00s CPU      0.00s WALL (      27 calls)

     General routines
     calbec       :      0.67s CPU      0.67s WALL (      32 calls)
     fft          :      1.67s CPU      1.71s WALL (     106 calls)
     fftw         :      1.36s CPU      1.37s WALL (     120 calls)

     Parallel routines
     fft_scatter  :      1.30s CPU      1.34s WALL (     226 calls)

     PWSCF        :     9.08s CPU         9.20s WALL


   This run was terminated on:  19:39:20  22Sep2019            

=------------------------------------------------------------------------------=
   JOB DONE.
=------------------------------------------------------------------------------=
