1.548205184936523438e+01 0.000000000000000000e+00 0.000000000000000000e+00 0.000000000000000000e+00 1.548205184936523438e+01 0.000000000000000000e+00 0.000000000000000000e+00 0.000000000000000000e+00 1.848205184936523438e+01
1.486277008056640625e+01 0.000000000000000000e+00 0.000000000000000000e+00 0.000000000000000000e+00 1.486277008056640625e+01 0.000000000000000000e+00 0.000000000000000000e+00 0.000000000000000000e+00 2.158276939392089844e+01
1.486277008056640625e+01 0.000000000000000000e+00 0.000000000000000000e+00 0.000000000000000000e+00 1.486277008056640625e+01 0.000000000000000000e+00 0.000000000000000000e+00 0.000000000000000000e+00 2.062277030944824219e+01
1.486277008056640625e+01 0.000000000000000000e+00 0.000000000000000000e+00 0.000000000000000000e+00 1.486277008056640625e+01 0.000000000000000000e+00 0.000000000000000000e+00 0.000000000000000000e+00 1.774276924133300781e+01
1.486277008056640625e+01 0.000000000000000000e+00 0.000000000000000000e+00 0.000000000000000000e+00 1.486277008056640625e+01 0.000000000000000000e+00 0.000000000000000000e+00 0.000000000000000000e+00 1.678277015686035156e+01
1.486277008056640625e+01 0.000000000000000000e+00 0.000000000000000000e+00 0.000000000000000000e+00 1.486277008056640625e+01 0.000000000000000000e+00 0.000000000000000000e+00 0.000000000000000000e+00 2.062277030944824219e+01
1.486277008056640625e+01 0.000000000000000000e+00 0.000000000000000000e+00 0.000000000000000000e+00 1.486277008056640625e+01 0.000000000000000000e+00 0.000000000000000000e+00 0.000000000000000000e+00 1.870277023315429688e+01
1.486277008056640625e+01 0.000000000000000000e+00 0.000000000000000000e+00 0.000000000000000000e+00 1.486277008056640625e+01 0.000000000000000000e+00 0.000000000000000000e+00 0.000000000000000000e+00 1.966276931762695312e+01
1.486277008056640625e+01 0.000000000000000000e+00 0.000000000000000000e+00 0.000000000000000000e+00 1.486277008056640625e+01 0.000000000000000000e+00 0.000000000000000000e+00 0.000000000000000000e+00 1.774276924133300781e+01
1.486277008056640625e+01 0.000000000000000000e+00 0.000000000000000000e+00 0.000000000000000000e+00 1.486277008056640625e+01 0.000000000000000000e+00 0.000000000000000000e+00 0.000000000000000000e+00 2.062277030944824219e+01
1.486277008056640625e+01 0.000000000000000000e+00 0.000000000000000000e+00 0.000000000000000000e+00 1.486277008056640625e+01 0.000000000000000000e+00 0.000000000000000000e+00 0.000000000000000000e+00 1.870277023315429688e+01
1.486277008056640625e+01 0.000000000000000000e+00 0.000000000000000000e+00 0.000000000000000000e+00 1.486277008056640625e+01 0.000000000000000000e+00 0.000000000000000000e+00 0.000000000000000000e+00 1.582277011871337891e+01
1.486277008056640625e+01 0.000000000000000000e+00 0.000000000000000000e+00 0.000000000000000000e+00 1.486277008056640625e+01 0.000000000000000000e+00 0.000000000000000000e+00 0.000000000000000000e+00 1.582277011871337891e+01
1.486277008056640625e+01 0.000000000000000000e+00 0.000000000000000000e+00 0.000000000000000000e+00 1.486277008056640625e+01 0.000000000000000000e+00 0.000000000000000000e+00 0.000000000000000000e+00 1.582277011871337891e+01
1.486277008056640625e+01 0.000000000000000000e+00 0.000000000000000000e+00 0.000000000000000000e+00 1.486277008056640625e+01 0.000000000000000000e+00 0.000000000000000000e+00 0.000000000000000000e+00 2.158276939392089844e+01
