-1.870370849609375000e+03
-1.863881835937500000e+03
-1.864184326171875000e+03
-1.861309326171875000e+03
-1.862239379882812500e+03
-1.865877197265625000e+03
-1.866526733398437500e+03
-1.860527709960937500e+03
-1.866794311523437500e+03
-1.863426757812500000e+03
-1.862507812500000000e+03
-1.866074584960937500e+03
-1.870379028320312500e+03
-1.867885742187500000e+03
-1.858142211914062500e+03
