8.731110095977783203e-01 2.378345966339111328e+00 1.770430058240890503e-01 -3.020490109920501709e-01 8.780500292778015137e-02 -3.936969935894012451e-01 1.115159988403320312e-01 2.433169931173324585e-01 -6.140099838376045227e-02 1.358819961547851562e+00 5.078759789466857910e-01 6.793980002403259277e-01 -4.749810099601745605e-01 -2.109154939651489258e+00 -5.068249702453613281e-01 -2.320295095443725586e+00 -1.114329993724822998e-01 7.108259797096252441e-01 4.320859909057617188e-01 2.823790013790130615e-01 1.472179055213928223e+00 -3.186748027801513672e+00 5.450040102005004883e-01 1.116160035133361816e+00 1.200509965419769287e-01 1.512994050979614258e+00 -6.977210044860839844e-01 -1.872877001762390137e+00 2.818859100341796875e+00 -6.048390269279479980e-01 -7.837299704551696777e-01 -1.848219931125640869e-01 -2.000530064105987549e-01 -1.198268055915832520e+00 2.328042030334472656e+00 -2.118505954742431641e+00 -3.040660023689270020e-01 1.078716993331909180e+00 -2.643719911575317383e-01 -8.982100337743759155e-02 1.820700056850910187e-02 -3.656420111656188965e-01 -7.864300012588500977e-01 -2.992169857025146484e-01 5.016419887542724609e-01 -1.271106004714965820e+00 -9.270169734954833984e-01 5.740169882774353027e-01 -7.642970085144042969e-01 9.016659855842590332e-01 -1.598806977272033691e+00 -1.272928953170776367e+00 -7.471010088920593262e-01 1.153061032295227051e+00 1.114078044891357422e+00 -8.474289774894714355e-01 -1.190196990966796875e+00 -1.905609011650085449e+00 -1.635524034500122070e+00 -3.107520043849945068e-01 6.533499807119369507e-02 -3.059279918670654297e-01 6.811569929122924805e-01 -2.229767084121704102e+00 5.680630207061767578e-01 1.039361953735351562e+00 -1.198600053787231445e+00 -1.478332996368408203e+00 -4.964849948883056641e-01 1.111780032515525818e-01 1.063735961914062500e+00 6.879630088806152344e-01 7.706599682569503784e-02 -4.799349904060363770e-01 -1.114217996597290039e+00 1.597244024276733398e+00 -7.744510173797607422e-01 -9.617429971694946289e-01 -1.283899992704391479e-01 6.561300158500671387e-02 1.240528941154479980e+00 -3.417400121688842773e-01 2.160809934139251709e-01 2.113799937069416046e-02 5.955989956855773926e-01 8.466060161590576172e-01 -2.010656118392944336e+00 2.312580049037933350e-01 7.911220192909240723e-01 4.388880133628845215e-01 4.242299869656562805e-02 1.004853963851928711e+00 -4.430769979953765869e-01 1.054050028324127197e-01 7.851989865303039551e-01 -8.802500367164611816e-02 1.057600006461143494e-01 4.776790142059326172e-01 -1.730828046798706055e+00 1.933256030082702637e+00 2.640151023864746094e+00 -1.366268992424011230e+00 1.201596021652221680e+00 -2.734920084476470947e-01 1.211881041526794434e+00 -1.436277031898498535e+00 2.225510030984878540e-01 6.779639720916748047e-01 1.363299936056137085e-01 7.222809791564941406e-01 -4.902310073375701904e-01 -8.546199649572372437e-02 -8.421319723129272461e-01 -9.691659808158874512e-01 3.416779935359954834e-01 -3.587850034236907959e-01 2.582182884216308594e+00 1.831609010696411133e+00 -2.085978984832763672e+00 -1.221719026565551758e+00 -1.055379986763000488e+00 1.375704050064086914e+00 5.877150297164916992e-01 -5.352749824523925781e-01 1.216590031981468201e-01 1.453377008438110352e+00 -3.597689867019653320e-01 -6.362789869308471680e-01 -1.103868007659912109e+00 -1.920389980077743530e-01 1.257519960403442383e+00 1.107643961906433105e+00 6.551129817962646484e-01 2.175168037414550781e+00 1.014621973037719727e+00 5.906019806861877441e-01 1.949290990829467773e+00 2.282762050628662109e+00 -1.136370003223419189e-01 8.760219812393188477e-01 1.419340074062347412e-01 5.148249864578247070e-01 -1.106935024261474609e+00 2.183033943176269531e+00 -2.447769939899444580e-01 5.762479901313781738e-01 4.367679953575134277e-01 1.128059998154640198e-01 1.319491982460021973e+00 2.299438953399658203e+00 -2.490100078284740448e-02 6.605709791183471680e-01 -1.867450952529907227e+00 -4.603919982910156250e-01 -9.338970184326171875e-01 -8.602139949798583984e-01 1.012779995799064636e-01 1.221905946731567383e+00 1.505700051784515381e-01 -2.233917951583862305e+00 1.221508026123046875e+00 -7.298900187015533447e-02 2.709519863128662109e-01 -1.079643964767456055e+00 -6.449859738349914551e-01 -1.948102951049804688e+00 -2.252979040145874023e+00 -7.904970049858093262e-01 -2.558932065963745117e+00 7.963799685239791870e-02 -2.010334014892578125e+00 -1.682360023260116577e-01 5.816239714622497559e-01 1.644340991973876953e+00 -7.151880264282226562e-01 2.389389991760253906e+00 3.043780028820037842e-01 -7.393590211868286133e-01 -4.540970027446746826e-01 8.846639990806579590e-01 -4.034639894962310791e-01 -8.936510086059570312e-01 1.941833019256591797e+00 3.475930094718933105e-01 1.432633996009826660e+00 -9.387189745903015137e-01 2.233880013227462769e-01 -3.305984973907470703e+00 -2.075158119201660156e+00 1.214617013931274414e+00 1.459787011146545410e+00 1.950170993804931641e+00 -1.423719972372055054e-01 -3.194630146026611328e-01 -1.720950007438659668e-01 8.207030296325683594e-01 2.247345924377441406e+00 9.569699764251708984e-01 2.708339989185333252e-01 -1.110929965972900391e+00 2.381159961223602295e-01 2.576110064983367920e-01 -3.430370092391967773e-01 -3.029969930648803711e-01 -8.433169722557067871e-01 -4.815779924392700195e-01 1.612681984901428223e+00 4.902319908142089844e-01 -7.651090025901794434e-01 4.639680087566375732e-01 -7.065010070800781250e-01 1.233659029006958008e+00 -2.628830909729003906e+00 1.362277984619140625e+00 2.040062904357910156e+00 8.279219865798950195e-01 1.067723035812377930e+00 -3.448939919471740723e-01 -2.005719900131225586e+00 -9.018989801406860352e-01 8.526290059089660645e-01 4.360200092196464539e-02 3.423300087451934814e-01 -6.195430159568786621e-01 1.526719927787780762e-01 -1.387323975563049316e+00 -1.848970055580139160e+00 -4.778679907321929932e-01 -1.453240066766738892e-01 9.143109917640686035e-01 1.635903000831604004e+00 -3.427830040454864502e-01 -1.836379051208496094e+00 6.971000228077173233e-03 2.087640017271041870e-01 1.089447021484375000e+00 1.968145966529846191e+00 -6.725099682807922363e-02 -2.043430060148239136e-01 -2.598690092563629150e-01 1.123484969139099121e+00 2.027664899826049805e+00 -4.559839963912963867e-01 7.020699977874755859e-01 1.093402028083801270e+00 2.010250091552734375e+00 4.882099926471710205e-01 2.948949933052062988e-01 4.248799979686737061e-01 -2.528339922428131104e-01 1.080050021409988403e-01 8.013820052146911621e-01 1.414885044097900391e+00 2.244970053434371948e-01 -9.883080124855041504e-01 -6.634420156478881836e-01 4.790900051593780518e-01 -1.185538053512573242e+00 -8.336380124092102051e-01 -4.453099966049194336e-01 -8.806470036506652832e-01 -2.107529938220977783e-01 -6.123210191726684570e-01 -3.424839973449707031e-01 -3.097090125083923340e-01 1.053040981292724609e+00 1.284438014030456543e+00 -8.798639774322509766e-01 -4.927699863910675049e-01 3.081420063972473145e-01 1.894350051879882812e-01 -4.164049923419952393e-01 3.120990097522735596e-01 6.927120089530944824e-01 -5.075599998235702515e-02 -1.523669958114624023e-01 4.217579960823059082e-01 -1.239470019936561584e-01 -1.880179941654205322e-01 -7.265449762344360352e-01 -3.949669897556304932e-01 -1.153404951095581055e+00 1.011986970901489258e+00 4.057889878749847412e-01 -4.010320007801055908e-01 -3.692249953746795654e-01 -3.625639975070953369e-01 2.929080128669738770e-01 1.252046942710876465e+00 3.139535903930664062e+00 4.118910133838653564e-01 5.127230286598205566e-01 2.939028978347778320e+00 1.170212984085083008e+00 -1.231503963470458984e+00 -7.730990052223205566e-01 -4.453119933605194092e-01 -1.718510031700134277e+00 1.576540023088455200e-01 2.602419853210449219e-01 4.513790011405944824e-01 1.189371943473815918e+00 8.454499840736389160e-01 9.379829764366149902e-01 -3.420880138874053955e-01 -4.656180143356323242e-01 -1.735599935054779053e-01 2.022382974624633789e+00 -1.158609986305236816e+00 -2.913750112056732178e-01 -5.535500124096870422e-02 1.117310002446174622e-01 4.970349967479705811e-01 -6.813390254974365234e-01 1.530790030956268311e-01 1.890931010246276855e+00 1.133080959320068359e+00 4.380447864532470703e+00 -1.621672034263610840e+00 2.316844940185546875e+00 1.444707036018371582e+00 1.726009994745254517e-01 -5.816000103950500488e-01 4.346559941768646240e-01 1.341339945793151855e-01 1.603730022907257080e-01 -1.349527955055236816e+00 6.734340190887451172e-01 -3.389999910723417997e-04 -4.368680119514465332e-01 2.979730069637298584e-01 -1.416324019432067871e+00 -1.886470019817352295e-01 4.752689898014068604e-01 -1.428828001022338867e+00 1.266010046005249023e+00 -1.239724993705749512e+00 2.065478086471557617e+00 9.993079900741577148e-01 1.056022047996520996e+00 -4.148829877376556396e-01 2.095649987459182739e-01 -7.827929854393005371e-01 2.807759940624237061e-01 -1.355368971824645996e+00 -8.735479712486267090e-01 1.150146007537841797e+00 -6.630939841270446777e-01 1.311213970184326172e+00 1.284661054611206055e+00 -1.595152020454406738e+00 -4.248690009117126465e-01 -7.981910109519958496e-01 1.345414042472839355e+00 9.743710160255432129e-01 4.898000136017799377e-02 -1.415604948997497559e+00 6.147999763488769531e-01 -1.802599988877773285e-02 3.936209976673126221e-01 -2.237799949944019318e-02 -7.706899940967559814e-02 -1.182872056961059570e+00 -1.392859965562820435e-01 -3.694190084934234619e-01 7.971099764108657837e-02 1.137581944465637207e+00 5.058320164680480957e-01 -2.340389937162399292e-01 -2.058099955320358276e-02 -3.702020049095153809e-01 -3.031769990921020508e-01 2.065970003604888916e-01 8.619000203907489777e-03 3.851749897003173828e-01 -2.176000028848648071e-01 2.305019944906234741e-01 -1.531780064105987549e-01 4.507830142974853516e-01 -6.572759747505187988e-01 3.391160070896148682e-01 -2.352489978075027466e-01 3.265880048274993896e-01 5.186910033226013184e-01 -1.238414049148559570e+00 -2.432259082794189453e+00 -1.430708050727844238e+00 2.367810010910034180e-01 2.092919945716857910e-01 -9.808800369501113892e-02 -4.364210069179534912e-01 1.930080056190490723e-01 -2.378350049257278442e-01 -1.042255043983459473e+00 2.089419960975646973e-01 -1.644580066204071045e-01 7.109100371599197388e-02 8.257299661636352539e-02 5.609189867973327637e-01 2.340909987688064575e-01 -4.759309887886047363e-01 1.596170067787170410e-01 5.748829841613769531e-01 -5.429679751396179199e-01 2.215349972248077393e-01 -1.083920001983642578e-01 -7.026600241661071777e-01 -4.413399994373321533e-01 -2.030940055847167969e-01 2.904230058193206787e-01 3.830809891223907471e-01 2.033565044403076172e+00 -3.625560104846954346e-01 -9.039430022239685059e-01 1.951130032539367676e-01 -1.057780981063842773e+00 -5.356029868125915527e-01 7.461569905281066895e-01 1.204972982406616211e+00 -8.817769885063171387e-01 1.459939926862716675e-01 4.568870067596435547e-01 5.690649747848510742e-01 1.398990005254745483e-01 2.601859867572784424e-01 1.949239969253540039e-01 -7.826070189476013184e-01 6.682590246200561523e-01 -7.343220114707946777e-01 2.173573017120361328e+00 -1.459766983985900879e+00 -4.404380023479461670e-01 2.144969999790191650e-01 -8.757759928703308105e-01 9.523550271987915039e-01 1.755999960005283356e-02 -2.257830053567886353e-01 -2.863079905509948730e-01 1.028941035270690918e+00 -2.538410127162933350e-01 2.103620022535324097e-01 -7.767599821090698242e-02 -1.259119957685470581e-01 1.141101956367492676e+00 -2.963170111179351807e-01 -7.264189720153808594e-01 -2.794579863548278809e-01 6.785100102424621582e-01 -2.020999938249588013e-01 1.014600023627281189e-01 -4.069000110030174255e-02 3.692319989204406738e-01 2.939719855785369873e-01 9.546369910240173340e-01 -1.923560023307800293e+00 9.427980184555053711e-01 7.300500273704528809e-01 -8.511329889297485352e-01 1.861740052700042725e-01 -6.284379959106445312e-01 -1.062680035829544067e-01 2.533169984817504883e-01 6.776649951934814453e-01 -4.286789894104003906e-01 4.119470119476318359e-01 7.005839943885803223e-01 -2.535330057144165039e-01 5.826999992132186890e-02 -2.595039904117584229e-01 -9.872999973595142365e-03 -3.274460136890411377e-01 4.523360133171081543e-01 1.986950039863586426e-01 -1.711619943380355835e-01 8.164499998092651367e-01 3.149699866771697998e-01 -6.978889703750610352e-01 3.518159985542297363e-01 1.005831956863403320e+00 -3.448010087013244629e-01 -5.167409777641296387e-01 -2.575219869613647461e-01 6.566519737243652344e-01 3.737129867076873779e-01 2.795900106430053711e-01 2.670960128307342529e-01 5.463269948959350586e-01 -2.594450116157531738e-01 2.568979859352111816e-01 1.828834056854248047e+00 3.593850135803222656e-01 -1.978610008955001831e-01 7.785490155220031738e-01 -2.620840072631835938e-01 3.156389892101287842e-01 1.243473052978515625e+00 2.763960063457489014e-01 -1.512436032295227051e+00 -1.064177036285400391e+00 1.006003975868225098e+00 7.507150173187255859e-01 -1.376110017299652100e-01 1.079527020454406738e+00 3.323900103569030762e-01 -8.891999721527099609e-03 6.787769794464111328e-01 5.968850255012512207e-01 1.115082979202270508e+00 7.640100121498107910e-01 3.140209913253784180e-01 -4.251849949359893799e-01 -2.152509987354278564e-01 -2.341430038213729858e-01 5.821700021624565125e-02 -1.755979955196380615e-01 -3.109189867973327637e-01 -3.018209934234619141e-01 -2.247390002012252808e-01 -1.194995999336242676e+00 1.186203956604003906e+00 -3.728799894452095032e-02 -3.567799925804138184e-01 1.159531950950622559e+00 1.236276030540466309e+00 4.293760061264038086e-01 8.799500018358230591e-02 -7.072979807853698730e-01 -6.002990007400512695e-01 5.861290097236633301e-01 2.503049969673156738e-01 1.132361054420471191e+00 -6.443870067596435547e-01 6.628779768943786621e-01 1.343034982681274414e+00 3.589330017566680908e-01 4.870769977569580078e-01 -5.456380248069763184e-01 9.061020016670227051e-01 -2.767879962921142578e+00 -7.557400315999984741e-02 -5.316659808158874512e-01 6.067839860916137695e-01 5.101479887962341309e-01 -1.026744008064270020e+00 3.944549858570098877e-01 -6.192029714584350586e-01 4.367899894714355469e-02 1.327590048313140869e-01 8.513200283050537109e-02 5.656210184097290039e-01 -2.557609975337982178e-01 -1.603360027074813843e-01 4.731419980525970459e-01 -8.773670196533203125e-01 1.261870026588439941e+00 -8.495540022850036621e-01 -7.023500204086303711e-01 -6.028609871864318848e-01 -2.428499981760978699e-02 -1.059484004974365234e+00 5.460129976272583008e-01 -1.869489997625350952e-01 -1.516889929771423340e-01 1.584897994995117188e+00 -1.217942953109741211e+00 1.069210022687911987e-01 7.671560049057006836e-01 -8.704099804162979126e-02 -6.049399822950363159e-02 -4.067999869585037231e-02 1.492239981889724731e-01 -5.598300099372863770e-01 3.654640018939971924e-01 -5.097100138664245605e-02 -5.385029911994934082e-01 -1.048146963119506836e+00 1.199200004339218140e-02 8.687250018119812012e-01 7.483969926834106445e-01 -8.827999830245971680e-01 -6.268600225448608398e-01 1.340338945388793945e+00 -7.601969838142395020e-01 -5.584859848022460938e-01 -1.581235051155090332e+00 1.840394973754882812e+00 -6.489660143852233887e-01 -9.394549727439880371e-01 -8.673049807548522949e-01 -5.023459792137145996e-01 7.640460133552551270e-01 -1.663870066404342651e-01 -7.194610238075256348e-01 8.673000149428844452e-03 1.395519971847534180e-01 9.051030278205871582e-01 -6.125900149345397949e-01 -5.687940120697021484e-01 7.229279875755310059e-01 2.119369953870773315e-01 -2.941389977931976318e-01 -1.658290028572082520e-01 2.899779975414276123e-01 -1.559779942035675049e-01 4.102849960327148438e-01 9.950270056724548340e-01 1.699690073728561401e-01 -1.158900000154972076e-02 -3.832900151610374451e-02 -9.326320290565490723e-01 2.271759957075119019e-01 -6.571350097656250000e-01 1.446090042591094971e-01 -4.247089922428131104e-01 2.927429974079132080e-01 -2.938299998641014099e-02 3.030740022659301758e-01 -1.568630039691925049e-01 -3.139680027961730957e-01 4.429590106010437012e-01 -1.943313002586364746e+00 -1.156360030174255371e+00 1.530266046524047852e+00 1.410570025444030762e+00 1.522400975227355957e+00 -1.051910996437072754e+00 -4.313199967145919800e-02 6.969000212848186493e-03 -5.840659737586975098e-01 -3.551230132579803467e-01 1.348540037870407104e-01 -2.029320001602172852e-01 7.143980264663696289e-01 -6.626039743423461914e-01 -1.230317950248718262e+00 3.673729896545410156e-01 -2.906149923801422119e-01 -1.200549975037574768e-01 -3.580090105533599854e-01 6.754029989242553711e-01 7.046800106763839722e-02 -6.835719943046569824e-01 -1.242699995636940002e-01 3.147709965705871582e-01 2.200440019369125366e-01 9.243249893188476562e-01 -3.918499946594238281e-01 -1.630326032638549805e+00 -5.387139916419982910e-01 -9.561910033226013184e-01 1.145318984985351562e+00 -5.812360048294067383e-01 -1.592113971710205078e+00 -2.751125097274780273e+00 2.029979974031448364e-01 -3.898200094699859619e-01 6.429970264434814453e-01 2.138949930667877197e-01 9.571030139923095703e-01 -3.517799973487854004e-01 -3.638159930706024170e-01 1.138543963432312012e+00 -6.352990269660949707e-01 -5.754299834370613098e-02 8.101800084114074707e-02 1.297419965267181396e-01 3.695079982280731201e-01 -3.319400176405906677e-02 -5.484830141067504883e-01 -4.985490143299102783e-01 -1.101899966597557068e-01 -1.378304004669189453e+00 1.822510063648223877e-01 -5.015050172805786133e-01 7.371100038290023804e-02 9.786000102758407593e-02 -1.686822056770324707e+00 -7.218149900436401367e-01 5.030810236930847168e-01 -7.663509845733642578e-01 1.432258963584899902e+00 -9.305970072746276855e-01 -1.011260002851486206e-01 9.318429827690124512e-01 2.553659975528717041e-01 3.149949908256530762e-01 -3.137019872665405273e-01 1.098500005900859833e-02 3.166869878768920898e-01 -1.287600994110107422e+00 -6.304600089788436890e-02 1.297329962253570557e-01 5.089880228042602539e-01 3.265439867973327637e-01 -1.131096005439758301e+00 1.739138960838317871e+00 3.199239969253540039e-01 -3.679920136928558350e-01 1.164639964699745178e-01 2.099025011062622070e+00 -1.406692981719970703e+00 -3.262430131435394287e-01 -7.230319976806640625e-01 -9.314680099487304688e-01 -9.393349885940551758e-01 1.109670028090476990e-01 2.512082099914550781e+00 -2.731240093708038330e-01 5.880999937653541565e-02 -1.221461057662963867e+00 -2.081834077835083008e+00 1.629479974508285522e-01 8.033300191164016724e-02 3.826799988746643066e-01 3.425810039043426514e-01 1.874284029006958008e+00 9.610300064086914062e-01 1.475239038467407227e+00 9.400100260972976685e-02 7.090749740600585938e-01 2.188111066818237305e+00 -3.108499944210052490e-01 2.333147048950195312e+00 -5.968019962310791016e-01 -6.531019806861877441e-01 -5.246359705924987793e-01 -3.386000171303749084e-02 -1.837139964103698730e+00 -3.396570086479187012e-01 -6.670899689197540283e-02 1.843599975109100342e-02 3.866130113601684570e-01 7.757189869880676270e-01 1.115889996290206909e-01 1.843709945678710938e-01 5.973939895629882812e-01 -2.177029997110366821e-01 -9.742540121078491211e-01 6.527569890022277832e-01 -3.383890092372894287e-01 -2.728219926357269287e-01 6.563360095024108887e-01 3.517189919948577881e-01 -1.005972027778625488e+00 3.764599934220314026e-02 8.632850050926208496e-01 -4.529500007629394531e-02 1.622889935970306396e-01 -1.354524970054626465e+00 5.524489879608154297e-01 2.189369946718215942e-01 -1.732230037450790405e-01 -7.375879883766174316e-01 -1.062669038772583008e+00 -8.519260287284851074e-01 -1.274731040000915527e+00 -4.926739931106567383e-01 1.210962057113647461e+00 -8.096699714660644531e-01 -1.753609925508499146e-01 -2.115489989519119263e-01 3.936760127544403076e-01 -2.785669863224029541e-01 3.472594976425170898e+00 2.876676082611083984e+00 -2.126960009336471558e-01 -5.919610261917114258e-01 -3.862569928169250488e-01 8.904799818992614746e-02 7.102999836206436157e-02 -7.542000152170658112e-03 -1.634255051612854004e+00 -1.184734940528869629e+00 -2.340659946203231812e-01 2.440679967403411865e-01 7.314730286598205566e-01 -5.314739942550659180e-01 5.321000143885612488e-02 4.590440094470977783e-01 1.387629956007003784e-01 9.909799695014953613e-02 1.961950063705444336e-01 2.757399976253509521e-01 7.444869875907897949e-01 -1.008509039878845215e+00 -4.356159865856170654e-01 -8.847200125455856323e-02 -2.127279937267303467e-01 2.063859999179840088e-01 -2.418580055236816406e-01 -6.398919820785522461e-01 -3.059929907321929932e-01 -1.586430072784423828e-01 7.913709878921508789e-01 -1.488356947898864746e+00 -1.385090053081512451e-01 -1.004199963063001633e-02 -2.157399989664554596e-02 8.399850130081176758e-01 1.003878951072692871e+00 5.014989972114562988e-01 -1.235903024673461914e+00 -1.708636045455932617e+00 -1.159569993615150452e-01 9.866129755973815918e-01 -1.755270063877105713e-01 -2.914470136165618896e-01 7.372500002384185791e-02 4.844189882278442383e-01 -3.641180098056793213e-01 -4.268399998545646667e-02 5.818179845809936523e-01 1.379516959190368652e+00 -2.372539937496185303e-01 -2.133380025625228882e-01 -4.941900074481964111e-01 -1.844969987869262695e-01 2.293229997158050537e-01 3.361519873142242432e-01 8.953899741172790527e-01 -1.041178941726684570e+00 -5.650439858436584473e-01 -4.478499889373779297e-01 1.768169999122619629e-01 -1.937409937381744385e-01 3.835369944572448730e-01 -8.973900228738784790e-02 -1.074860021471977234e-01 -4.080460071563720703e-01 -3.739910125732421875e-01 1.003263950347900391e+00 1.364019960165023804e-01 5.734499916434288025e-02 2.819310128688812256e-01 6.668609976768493652e-01 -2.980189919471740723e-01 -1.022253036499023438e+00 5.683230161666870117e-01 1.791522979736328125e+00 2.607100084424018860e-02 4.654100164771080017e-02 -1.304896950721740723e+00 -5.699269771575927734e-01 -6.328699737787246704e-02 7.800589799880981445e-01 8.169850111007690430e-01 -2.022529989480972290e-01 -1.499704957008361816e+00 -1.135856032371520996e+00 6.487619876861572266e-01 -2.958439886569976807e-01 -5.230100154876708984e-01 3.390699997544288635e-02 7.043179869651794434e-01 -5.419690012931823730e-01 5.136259794235229492e-01 9.787870049476623535e-01 -8.975710272789001465e-01 -2.202400006353855133e-02 4.731589853763580322e-01 -4.184999968856573105e-03 1.138470023870468140e-01 -4.950670003890991211e-01 4.083600044250488281e-01 -2.538160085678100586e-01 2.964800000190734863e-01 8.443699777126312256e-02 3.172029852867126465e-01 5.779320001602172852e-01 -1.024512052536010742e+00 -4.823809862136840820e-01 -1.012495994567871094e+00 -1.411799937486648560e-01 -1.060279980301856995e-01 -7.039359807968139648e-01 -2.889620065689086914e-01 -7.158499956130981445e-01 -2.217067003250122070e+00 5.439540147781372070e-01 -1.094176054000854492e+00 -1.855499029159545898e+00 -8.676909804344177246e-01 -1.850949972867965698e-01 2.927429974079132080e-01 3.049130141735076904e-01 -1.946939975023269653e-01 -4.558950066566467285e-01 -6.566699743270874023e-01 -1.946939975023269653e-01 -8.433820009231567383e-01 -1.249300036579370499e-02 5.457710027694702148e-01 5.786830186843872070e-01 -7.137749791145324707e-01 -5.552000179886817932e-02 3.508500009775161743e-02 -4.121600091457366943e-02 -8.449000306427478790e-03 5.382649898529052734e-01 1.652749925851821899e-01 -1.186226963996887207e+00 5.727580189704895020e-01 9.393910169601440430e-01 -1.900600045919418335e-01 -2.586580991744995117e+00 -6.917290091514587402e-01 5.004990100860595703e-01 2.649390101432800293e-01 7.983570098876953125e-01 2.878670096397399902e-01 -4.900100082159042358e-02 -1.261640042066574097e-01 1.804260015487670898e-01 -7.243589758872985840e-01 -8.915550112724304199e-01 3.996999934315681458e-02 -7.182890176773071289e-01 -3.373140096664428711e-01 -1.017299965023994446e-01 1.602510064840316772e-01 2.901049852371215820e-01 -1.744280010461807251e-01 1.342259943485260010e-01 5.827200040221214294e-02 7.235100120306015015e-02 -2.471310049295425415e-01 -3.331750035285949707e-01 7.242169976234436035e-01 1.381765961647033691e+00 2.487770020961761475e-01 6.930630207061767578e-01 -2.585889995098114014e-01 8.526579737663269043e-01 -1.068572998046875000e+00 1.645700074732303619e-02 -8.666999638080596924e-03 -4.410879909992218018e-01 -1.175509989261627197e-01 -8.701800107955932617e-01 8.371840119361877441e-01 3.005689978599548340e-01 8.227840065956115723e-01 -7.194280028343200684e-01 8.601970076560974121e-01 6.340950131416320801e-01 -3.091619908809661865e-01 4.634790122509002686e-01 -4.410749971866607666e-01 3.016999922692775726e-02 3.051089942455291748e-01 6.470170021057128906e-01 -1.818760037422180176e-01 -4.399500042200088501e-02 5.058559775352478027e-01 -2.602289915084838867e-01 -1.178411006927490234e+00 -4.215539991855621338e-01 7.677270174026489258e-01 1.322599947452545166e-01 2.561379969120025635e-01 1.514469981193542480e-01 -3.688940107822418213e-01 -5.410450100898742676e-01 -4.360910058021545410e-01 -4.658649861812591553e-01 -5.079320073127746582e-01 9.608830213546752930e-01 7.740000146441161633e-04 2.159861087799072266e+00 1.657580971717834473e+00 -9.309999644756317139e-02 -6.083480119705200195e-01 -1.501194953918457031e+00 -3.046367883682250977e+00 -2.144310027360916138e-01 -1.322968959808349609e+00 -1.628389954566955566e-01 -2.907789945602416992e-01 8.278200030326843262e-01 8.738610148429870605e-01 -1.222715973854064941e+00 3.111079931259155273e-01 6.058999896049499512e-02 3.934539854526519775e-01 -7.342979907989501953e-01 -7.221689820289611816e-01 -3.600549995899200439e-01 -5.583630204200744629e-01 6.164000034332275391e-01 3.784500062465667725e-02 8.482609987258911133e-01 -2.575069963932037354e-01 3.581520020961761475e-01 2.308630049228668213e-01 2.046809941530227661e-01 -1.404899954795837402e-01 -5.651760101318359375e-01 -6.128079891204833984e-01 -6.361770033836364746e-01 -4.162440001964569092e-01 -8.826600015163421631e-02 5.077480077743530273e-01 -1.346325993537902832e+00 -1.427499055862426758e+00 1.059548974037170410e+00 -2.330400049686431885e-02 1.901900023221969604e-01 -2.883299887180328369e-01 1.012839972972869873e-01 4.307200014591217041e-01 -2.962799929082393646e-02 2.984490096569061279e-01 -1.056710958480834961e+00 -1.975530028343200684e+00 5.425429940223693848e-01 7.259000092744827271e-02 -9.663389921188354492e-01 1.133880019187927246e-01 2.100059986114501953e-01 -7.438639998435974121e-01 -8.893330097198486328e-01 1.642419993877410889e-01 -1.133859977126121521e-01 -2.136240959167480469e+00 5.505499988794326782e-02 -1.791749954223632812e+00 1.194741964340209961e+00 -1.973644018173217773e+00 -3.886829912662506104e-01 -2.284930050373077393e-01 1.557240039110183716e-01 2.562600076198577881e-01 -1.504579931497573853e-01 -4.765839874744415283e-01 1.740720033645629883e+00 -1.029899995774030685e-02 -1.808429956436157227e-01 1.090330034494400024e-01 -6.667760014533996582e-01 8.409339785575866699e-01 2.767780125141143799e-01 4.825999960303306580e-03 9.073680043220520020e-01 -3.389169871807098389e-01 3.969100117683410645e-02 6.778780221939086914e-01 -4.860259890556335449e-01 -6.414279937744140625e-01 -6.340800225734710693e-02 5.033209919929504395e-01 5.217300057411193848e-01 8.170359730720520020e-01 1.102180033922195435e-01 -4.259760081768035889e-01 5.346649885177612305e-01 -5.658389925956726074e-01 4.363540112972259521e-01 -1.938320040702819824e+00 -2.837139964103698730e-01 1.685499958693981171e-02 5.213530063629150391e-01 3.472999902442097664e-03 5.868909955024719238e-01 -3.193019926548004150e-01 -1.167000038549304008e-03 4.769040048122406006e-01 -4.087109863758087158e-01 1.575129926204681396e-01 1.068977952003479004e+00 1.117660030722618103e-01 -5.927460193634033203e-01 1.127799972891807556e-01 -5.325599908828735352e-01 -1.110680028796195984e-01 2.280949950218200684e-01 9.937000274658203125e-02 1.175079941749572754e+00 2.485769987106323242e-01 -7.036190032958984375e-01 1.950930058956146240e-01 4.885149896144866943e-01 -3.961069881916046143e-01 6.622139811515808105e-01 -1.075063943862915039e+00 5.361559987068176270e-01 -5.956969857215881348e-01 2.593039870262145996e-01 -5.696769952774047852e-01 1.271713018417358398e+00 3.200559914112091064e-01 -7.428400218486785889e-02 1.928080022335052490e-01 -1.781126976013183594e+00 -4.636990129947662354e-01 7.816920280456542969e-01 1.407096982002258301e+00 3.315390050411224365e-01 -4.921559989452362061e-01 -1.053684949874877930e+00 7.137389779090881348e-01 -1.979770064353942871e-01 -4.391460120677947998e-01 -3.472099825739860535e-02 -3.669520020484924316e-01 1.778070032596588135e-01 -4.591769874095916748e-01 9.723169803619384766e-01 6.922900080680847168e-01 6.265249848365783691e-01 3.213669955730438232e-01 -1.005280017852783203e-01 -6.007429957389831543e-01 2.205529958009719849e-01 1.247650012373924255e-01 2.186709940433502197e-01 2.588480114936828613e-01 -4.119409918785095215e-01 2.500990033149719238e-01 2.986750006675720215e-01 -6.850929856300354004e-01 -9.176909923553466797e-01 -6.862329840660095215e-01 -1.276445031166076660e+00 -3.957819938659667969e-01 -7.522299885749816895e-02 -8.300100266933441162e-02 4.962170124053955078e-01 1.470810025930404663e-01 -3.355090022087097168e-01 2.927230000495910645e-01 -1.451220065355300903e-01 1.490660011768341064e-01 -2.252800017595291138e-02 -8.967500180006027222e-02 3.136410117149353027e-01 -1.961929947137832642e-01 -1.546999998390674591e-02 8.028489947319030762e-01 -1.693263053894042969e+00 8.928679823875427246e-01 5.809399858117103577e-02 -7.144749760627746582e-01 -9.208440184593200684e-01 -3.315039873123168945e-01 -3.711169958114624023e-01 7.094100117683410645e-02 -3.519850075244903564e-01 6.102889776229858398e-01 -2.386589944362640381e-01 9.589199721813201904e-02 3.797270059585571289e-01 -8.129500150680541992e-01