    6    6    1    1
  0.5000000E+03  0.3000000E-08  0.1000000E-08  0.1000000E-08  0.5000000E-15
  1.000000000000000E-004
  CAR 
 unknown system                          
     16      2     12
 
  0.0000000E+00  0.2500000E+00  0.2500000E+00  0.5000000E+00
    1      -24.770450   1.000000
    2      -24.640597   1.000000
    3      -12.580986   1.000000
    4      -12.422886   1.000000
    5       -9.339663   1.000000
    6       -9.191348   1.000000
    7       -7.133685   1.000000
    8       -6.972591   1.000000
    9       -1.172304   0.000000
   10       -0.996946   0.000000
   11        0.192044   0.000000
   12        0.265262   0.000000
 
  0.0000000E+00 -0.2500000E+00  0.2500000E+00  0.5000000E+00
    1      -24.770450   1.000000
    2      -24.640597   1.000000
    3      -12.580987   1.000000
    4      -12.422886   1.000000
    5       -9.339663   1.000000
    6       -9.191348   1.000000
    7       -7.133685   1.000000
    8       -6.972591   1.000000
    9       -1.172307   0.000000
   10       -0.996926   0.000000
   11        0.192440   0.000000
   12        0.264919   0.000000
