
     Program PWSCF v.5.4.0 starts on 22Sep2019 at 18:38:45 

     This program is part of the open-source Quantum ESPRESSO suite
     for quantum simulation of materials; please cite
         "P. Giannozzi et al., J. Phys.:Condens. Matter 21 395502 (2009);
          URL http://www.quantum-espresso.org", 
     in publications or presentations arising from this work. More details at
     http://www.quantum-espresso.org/quote

           HOST :    @host@
           ARCH :    
             CC :    cc
            CPP :    cpp
            F90 :    mpif90
            F77 :    gfortran
         DFLAGS :    -D__GFORTRAN -D__STD_F95 -D__FFTW3 -D__MPI -D__PARA
      BLAS LIBS :    -lopenblas
    LAPACK LIBS :    -lopenblas
       FFT LIBS :    -lfftw3
      MASS LIBS :    

     Parallel version (MPI), running on    28 processors
     R & G space division:  proc/nbgrp/npool/nimage =      28
     Waiting for input...
     Reading input from standard input
Warning: card &IONS ignored
Warning: card / ignored
Warning: card &CELL ignored
Warning: card / ignored

     Current dimensions of program PWSCF are:
     Max number of different atomic species (ntypx) = 10
     Max number of k-points (npk) =  40000
     Max angular momentum in pseudopotentials (lmaxx) =  3

     IMPORTANT: XC functional enforced from input :
     Exchange-correlation      = PBE ( 1  4  3  4 0 0)
     Any further DFT definition will be discarded
     Please, verify this is what you really want


     gamma-point specific algorithms are used

     Subspace diagonalization in iterative solution of the eigenvalue problem:
     a serial algorithm will be used


     Parallelization info
     --------------------
     sticks:   dense  smooth     PW     G-vecs:    dense   smooth      PW
     Min         445     445    110                37558    37558    4694
     Max         448     448    112                37564    37564    4708
     Sum       12517   12517   3125              1051747  1051747  131683
     Tot        6259    6259   1563



     bravais-lattice index     =            1
     lattice parameter (alat)  =      18.8973  a.u.
     unit-cell volume          =    6748.3346 (a.u.)^3
     number of atoms/cell      =            5
     number of atomic types    =            2
     number of electrons       =         8.00
     number of Kohn-Sham states=            4
     kinetic-energy cutoff     =     110.0000  Ry
     charge density cutoff     =     440.0000  Ry
     convergence threshold     =      1.0E-06
     mixing beta               =       0.5000
     number of iterations used =            8  plain     mixing
     Exchange-correlation      = PBE ( 1  4  3  4 0 0)

     celldm(1)=  18.897261  celldm(2)=   0.000000  celldm(3)=   0.000000
     celldm(4)=   0.000000  celldm(5)=   0.000000  celldm(6)=   0.000000

     crystal axes: (cart. coord. in units of alat)
               a(1) = (   1.000000   0.000000   0.000000 )  
               a(2) = (   0.000000   1.000000   0.000000 )  
               a(3) = (   0.000000   0.000000   1.000000 )  

     reciprocal axes: (cart. coord. in units 2 pi/alat)
               b(1) = (  1.000000  0.000000  0.000000 )  
               b(2) = (  0.000000  1.000000  0.000000 )  
               b(3) = (  0.000000  0.000000  1.000000 )  


     PseudoPot. # 1 for  H read from file:
     ../pseudo/H.tm.pbe.UPF
     MD5 check sum: 4b614d66af87240b7a5107bfa527a767
     Pseudo is Norm-conserving, Zval =  1.0
     Generated using "atomic" code by A. Dal Corso  v.5.2.0
     Using radial grid of  929 points,  0 beta functions with: 

     PseudoPot. # 2 for  C read from file:
     ../pseudo/C.tm.pbe.UPF
     MD5 check sum: a4f27fcb9b24331b00ace8e732a7e062
     Pseudo is Norm-conserving, Zval =  4.0
     Generated using "atomic" code by A. Dal Corso  v.5.2.0
     Using radial grid of 1073 points,  1 beta functions with: 
                l(1) =   1

     atomic species   valence    mass     pseudopotential
        H              1.00     1.00000      H( 1.00)
        C              4.00     1.00000      C( 1.00)

     No symmetry found



   Cartesian axes

     site n.     atom                  positions (alat units)
         1           H   tau(   1) = (   0.5416810   0.4152850   0.3463820  )
         2           H   tau(   2) = (   0.4069710   0.4938720   0.4342780  )
         3           H   tau(   3) = (   0.5653340   0.5641530   0.4434460  )
         4           H   tau(   4) = (   0.5345960   0.4118000   0.5315960  )
         5           C   tau(   5) = (   0.5133780   0.4696820   0.4388490  )

     number of k points=     1
                       cart. coord. in units 2pi/alat
        k(    1) = (   0.0000000   0.0000000   0.0000000), wk =   2.0000000

     Dense  grid:   525874 G-vectors     FFT dimensions: ( 128, 128, 128)

     Largest allocated arrays     est. size (Mb)     dimensions
        Kohn-Sham Wavefunctions         0.14 Mb     (    2354,    4)
        NL pseudopotentials             0.11 Mb     (    2354,    3)
        Each V/rho on FFT grid          1.25 Mb     (   81920)
        Each G-vector array             0.14 Mb     (   18782)
        G-vector shells                 0.02 Mb     (    2785)
     Largest temporary arrays     est. size (Mb)     dimensions
        Auxiliary wavefunctions         0.29 Mb     (    2354,   16)
        Each subspace H/S matrix        0.00 Mb     (      16,   16)
        Each <psi_i|beta_j> matrix      0.00 Mb     (       3,    4)
        Arrays for rho mixing          10.00 Mb     (   81920,    8)

     Initial potential from superposition of free atoms
     Check: negative starting charge=   -0.000386

     starting charge    7.99992, renormalised to    8.00000

     negative rho (up, down):  3.864E-04 0.000E+00
     Starting wfc are    8 randomized atomic wfcs

     total cpu time spent up to now is        3.0 secs

     per-process dynamical memory:   430.9 Mb

     Self-consistent Calculation

     iteration #  1     ecut=   110.00 Ry     beta=0.50
     Davidson diagonalization with overlap
     ethr =  1.00E-02,  avg # of iterations =  2.0

     negative rho (up, down):  1.826E-04 0.000E+00

     total cpu time spent up to now is        3.5 secs

     total energy              =     -16.02042715 Ry
     Harris-Foulkes estimate   =     -16.40775776 Ry
     estimated scf accuracy    <       0.68831714 Ry

     iteration #  2     ecut=   110.00 Ry     beta=0.50
     Davidson diagonalization with overlap
     ethr =  8.60E-03,  avg # of iterations =  2.0

     negative rho (up, down):  9.575E-05 0.000E+00

     total cpu time spent up to now is        4.0 secs

     total energy              =     -16.15269545 Ry
     Harris-Foulkes estimate   =     -16.17190252 Ry
     estimated scf accuracy    <       0.04997379 Ry

     iteration #  3     ecut=   110.00 Ry     beta=0.50
     Davidson diagonalization with overlap
     ethr =  6.25E-04,  avg # of iterations =  1.0

     negative rho (up, down):  5.102E-06 0.000E+00

     total cpu time spent up to now is        4.4 secs

     total energy              =     -16.15098159 Ry
     Harris-Foulkes estimate   =     -16.15643588 Ry
     estimated scf accuracy    <       0.01145973 Ry

     iteration #  4     ecut=   110.00 Ry     beta=0.50
     Davidson diagonalization with overlap
     ethr =  1.43E-04,  avg # of iterations =  2.0

     negative rho (up, down):  5.688E-06 0.000E+00

     total cpu time spent up to now is        4.9 secs

     total energy              =     -16.15285228 Ry
     Harris-Foulkes estimate   =     -16.15513800 Ry
     estimated scf accuracy    <       0.00514931 Ry

     iteration #  5     ecut=   110.00 Ry     beta=0.50
     Davidson diagonalization with overlap
     ethr =  6.44E-05,  avg # of iterations =  1.0

     negative rho (up, down):  1.303E-06 0.000E+00

     total cpu time spent up to now is        5.3 secs

     total energy              =     -16.15315181 Ry
     Harris-Foulkes estimate   =     -16.15332292 Ry
     estimated scf accuracy    <       0.00031798 Ry

     iteration #  6     ecut=   110.00 Ry     beta=0.50
     Davidson diagonalization with overlap
     ethr =  3.97E-06,  avg # of iterations =  3.0

     total cpu time spent up to now is        5.9 secs

     total energy              =     -16.15336098 Ry
     Harris-Foulkes estimate   =     -16.15340492 Ry
     estimated scf accuracy    <       0.00010173 Ry

     iteration #  7     ecut=   110.00 Ry     beta=0.50
     Davidson diagonalization with overlap
     ethr =  1.27E-06,  avg # of iterations =  2.0

     total cpu time spent up to now is        6.3 secs

     total energy              =     -16.15337367 Ry
     Harris-Foulkes estimate   =     -16.15337511 Ry
     estimated scf accuracy    <       0.00000358 Ry

     iteration #  8     ecut=   110.00 Ry     beta=0.50
     Davidson diagonalization with overlap
     ethr =  4.47E-08,  avg # of iterations =  2.0

     total cpu time spent up to now is        6.7 secs

     End of self-consistent calculation

          k = 0.0000 0.0000 0.0000 ( 65842 PWs)   bands (ev):

   -16.8150  -9.3274  -9.2424  -9.1402

     highest occupied level (ev):    -9.1402

!    total energy              =     -16.15337424 Ry
     Harris-Foulkes estimate   =     -16.15337442 Ry
     estimated scf accuracy    <       0.00000044 Ry

     The total energy is the sum of the following terms:

     one-electron contribution =     -40.15496203 Ry
     hartree contribution      =      20.90289732 Ry
     xc contribution           =      -6.33579368 Ry
     ewald contribution        =       9.43448414 Ry

     convergence has been achieved in   8 iterations

     Forces acting on atoms (Ry/au):

     atom    1 type  1   force =    -0.00069308    0.00384611    0.01911737
     atom    2 type  1   force =    -0.00894781   -0.00545777    0.00103778
     atom    3 type  1   force =     0.01848321    0.01759915   -0.00022491
     atom    4 type  1   force =    -0.00279190    0.00587686   -0.02299753
     atom    5 type  2   force =    -0.00605043   -0.02186434    0.00306729

     Total force =     0.047311     Total SCF correction =     0.000249


     entering subroutine stress ...

          total   stress  (Ry/bohr**3)                   (kbar)     P=   -0.43
   0.00000325   0.00000484  -0.00000019          0.48      0.71     -0.03
   0.00000484   0.00000086   0.00000083          0.71      0.13      0.12
  -0.00000019   0.00000083  -0.00001282         -0.03      0.12     -1.89


     init_run     :      2.60s CPU      2.63s WALL (       1 calls)
     electrons    :      3.63s CPU      3.69s WALL (       1 calls)
     forces       :      1.10s CPU      1.10s WALL (       1 calls)
     stress       :      1.12s CPU      1.12s WALL (       1 calls)

     Called by init_run:
     wfcinit      :      0.20s CPU      0.20s WALL (       1 calls)
     potinit      :      1.06s CPU      1.07s WALL (       1 calls)

     Called by electrons:
     c_bands      :      1.47s CPU      1.47s WALL (       8 calls)
     sum_band     :      0.43s CPU      0.44s WALL (       8 calls)
     v_of_rho     :      1.70s CPU      1.76s WALL (       9 calls)
     mix_rho      :      0.20s CPU      0.20s WALL (       8 calls)

     Called by c_bands:
     init_us_2    :      0.04s CPU      0.04s WALL (      17 calls)
     regterg      :      1.44s CPU      1.44s WALL (       8 calls)

     Called by sum_band:

     Called by *egterg:
     h_psi        :      1.57s CPU      1.58s WALL (      24 calls)
     g_psi        :      0.01s CPU      0.01s WALL (      15 calls)
     rdiaghg      :      0.00s CPU      0.00s WALL (      23 calls)

     Called by h_psi:
     add_vuspsi   :      0.00s CPU      0.00s WALL (      24 calls)

     General routines
     calbec       :      0.39s CPU      0.39s WALL (      29 calls)
     fft          :      1.76s CPU      1.82s WALL (     106 calls)
     fftw         :      1.20s CPU      1.21s WALL (     116 calls)

     Parallel routines
     fft_scatter  :      1.26s CPU      1.32s WALL (     222 calls)

     PWSCF        :     8.83s CPU         8.97s WALL


   This run was terminated on:  18:38:54  22Sep2019            

=------------------------------------------------------------------------------=
   JOB DONE.
=------------------------------------------------------------------------------=
