12.382710691422698 0.0 0.0 0.0 12.382710691422698 0.0 0.0 0.0 12.382710691422698
12.45767075969481 0.0 0.0 0.0 12.45767075969481 0.0 0.0 0.0 12.45767075969481
12.403897888490757 0.0 0.0 0.0 12.403897888490757 0.0 0.0 0.0 12.403897888490757
12.153248870336435 0.0 0.0 0.0 12.153248870336435 0.0 0.0 0.0 12.153248870336435
12.381746001371871 0.0 0.0 0.0 12.381746001371871 0.0 0.0 0.0 12.381746001371871
12.620496469996361 0.0 0.0 0.0 12.620496469996361 0.0 0.0 0.0 12.620496469996361
12.54462039597659 0.0 0.0 0.0 12.54462039597659 0.0 0.0 0.0 12.54462039597659
12.649480564052302 0.0 0.0 0.0 12.649480564052302 0.0 0.0 0.0 12.649480564052302
12.651886732818687 0.0 0.0 0.0 12.651886732818687 0.0 0.0 0.0 12.651886732818687
12.581362227906993 0.0 0.0 0.0 12.581362227906993 0.0 0.0 0.0 12.581362227906993
12.636860745987487 0.0 0.0 0.0 12.636860745987487 0.0 0.0 0.0 12.636860745987487
12.107060166882507 0.0 0.0 0.0 12.107060166882507 0.0 0.0 0.0 12.107060166882507
12.47831819601035 0.0 0.0 0.0 12.47831819601035 0.0 0.0 0.0 12.47831819601035
12.475901972877008 0.0 0.0 0.0 12.475901972877008 0.0 0.0 0.0 12.475901972877008
12.291032327607073 0.0 0.0 0.0 12.291032327607073 0.0 0.0 0.0 12.291032327607073
12.27144377488545 0.0 0.0 0.0 12.27144377488545 0.0 0.0 0.0 12.27144377488545
12.271284492545735 0.0 0.0 0.0 12.271284492545735 0.0 0.0 0.0 12.271284492545735
12.234783965422343 0.0 0.0 0.0 12.234783965422343 0.0 0.0 0.0 12.234783965422343
12.174779503412717 0.0 0.0 0.0 12.174779503412717 0.0 0.0 0.0 12.174779503412717
12.719691266879444 0.0 0.0 0.0 12.719691266879444 0.0 0.0 0.0 12.719691266879444
12.580253601655492 0.0 0.0 0.0 12.580253601655492 0.0 0.0 0.0 12.580253601655492
12.586176152971385 0.0 0.0 0.0 12.586176152971385 0.0 0.0 0.0 12.586176152971385
12.447207867931244 0.0 0.0 0.0 12.447207867931244 0.0 0.0 0.0 12.447207867931244
12.55036091033281 0.0 0.0 0.0 12.55036091033281 0.0 0.0 0.0 12.55036091033281
12.309606447620283 0.0 0.0 0.0 12.309606447620283 0.0 0.0 0.0 12.309606447620283
12.166856133072038 0.0 0.0 0.0 12.166856133072038 0.0 0.0 0.0 12.166856133072038
12.582371898020531 0.0 0.0 0.0 12.582371898020531 0.0 0.0 0.0 12.582371898020531
12.40203624307177 0.0 0.0 0.0 12.40203624307177 0.0 0.0 0.0 12.40203624307177
12.264688827820816 0.0 0.0 0.0 12.264688827820816 0.0 0.0 0.0 12.264688827820816
12.42415532120374 0.0 0.0 0.0 12.42415532120374 0.0 0.0 0.0 12.42415532120374
12.585241096844223 0.0 0.0 0.0 12.585241096844223 0.0 0.0 0.0 12.585241096844223
12.748225560308283 0.0 0.0 0.0 12.748225560308283 0.0 0.0 0.0 12.748225560308283
12.598785387492034 0.0 0.0 0.0 12.598785387492034 0.0 0.0 0.0 12.598785387492034
12.619468278680532 0.0 0.0 0.0 12.619468278680532 0.0 0.0 0.0 12.619468278680532
12.645829241314663 0.0 0.0 0.0 12.645829241314663 0.0 0.0 0.0 12.645829241314663
12.509688350098756 0.0 0.0 0.0 12.509688350098756 0.0 0.0 0.0 12.509688350098756
12.46521788504035 0.0 0.0 0.0 12.46521788504035 0.0 0.0 0.0 12.46521788504035
12.440911717506255 0.0 0.0 0.0 12.440911717506255 0.0 0.0 0.0 12.440911717506255
12.363680420655887 0.0 0.0 0.0 12.363680420655887 0.0 0.0 0.0 12.363680420655887
12.34060617766284 0.0 0.0 0.0 12.34060617766284 0.0 0.0 0.0 12.34060617766284
12.429273523162934 0.0 0.0 0.0 12.429273523162934 0.0 0.0 0.0 12.429273523162934
12.608295760280562 0.0 0.0 0.0 12.608295760280562 0.0 0.0 0.0 12.608295760280562
12.563505672188311 0.0 0.0 0.0 12.563505672188311 0.0 0.0 0.0 12.563505672188311
12.170451363025592 0.0 0.0 0.0 12.170451363025592 0.0 0.0 0.0 12.170451363025592
12.358798231731619 0.0 0.0 0.0 12.358798231731619 0.0 0.0 0.0 12.358798231731619
12.535695822357708 0.0 0.0 0.0 12.535695822357708 0.0 0.0 0.0 12.535695822357708
12.545728493050882 0.0 0.0 0.0 12.545728493050882 0.0 0.0 0.0 12.545728493050882
12.493836846822525 0.0 0.0 0.0 12.493836846822525 0.0 0.0 0.0 12.493836846822525
12.743522762457644 0.0 0.0 0.0 12.743522762457644 0.0 0.0 0.0 12.743522762457644
12.43795996703806 0.0 0.0 0.0 12.43795996703806 0.0 0.0 0.0 12.43795996703806
12.774999810342138 0.0 0.0 0.0 12.774999810342138 0.0 0.0 0.0 12.774999810342138
12.417124143636345 0.0 0.0 0.0 12.417124143636345 0.0 0.0 0.0 12.417124143636345
12.313987505728242 0.0 0.0 0.0 12.313987505728242 0.0 0.0 0.0 12.313987505728242
12.614172273179328 0.0 0.0 0.0 12.614172273179328 0.0 0.0 0.0 12.614172273179328
12.541927942340488 0.0 0.0 0.0 12.541927942340488 0.0 0.0 0.0 12.541927942340488
12.322171760432637 0.0 0.0 0.0 12.322171760432637 0.0 0.0 0.0 12.322171760432637
12.387686544712846 0.0 0.0 0.0 12.387686544712846 0.0 0.0 0.0 12.387686544712846
12.408754676909027 0.0 0.0 0.0 12.408754676909027 0.0 0.0 0.0 12.408754676909027
12.419710761830778 0.0 0.0 0.0 12.419710761830778 0.0 0.0 0.0 12.419710761830778
12.151746007064713 0.0 0.0 0.0 12.151746007064713 0.0 0.0 0.0 12.151746007064713
12.369717274248787 0.0 0.0 0.0 12.369717274248787 0.0 0.0 0.0 12.369717274248787
12.750172403257814 0.0 0.0 0.0 12.750172403257814 0.0 0.0 0.0 12.750172403257814
12.394671683863114 0.0 0.0 0.0 12.394671683863114 0.0 0.0 0.0 12.394671683863114
12.574027302622005 0.0 0.0 0.0 12.574027302622005 0.0 0.0 0.0 12.574027302622005
12.544311356486912 0.0 0.0 0.0 12.544311356486912 0.0 0.0 0.0 12.544311356486912
12.611689373717734 0.0 0.0 0.0 12.611689373717734 0.0 0.0 0.0 12.611689373717734
12.641282021563281 0.0 0.0 0.0 12.641282021563281 0.0 0.0 0.0 12.641282021563281
12.62617030802433 0.0 0.0 0.0 12.62617030802433 0.0 0.0 0.0 12.62617030802433
12.555706129314387 0.0 0.0 0.0 12.555706129314387 0.0 0.0 0.0 12.555706129314387
12.591348860183041 0.0 0.0 0.0 12.591348860183041 0.0 0.0 0.0 12.591348860183041
12.624862711142487 0.0 0.0 0.0 12.624862711142487 0.0 0.0 0.0 12.624862711142487
12.639117686781116 0.0 0.0 0.0 12.639117686781116 0.0 0.0 0.0 12.639117686781116
12.59728252422031 0.0 0.0 0.0 12.59728252422031 0.0 0.0 0.0 12.59728252422031
12.512597237213077 0.0 0.0 0.0 12.512597237213077 0.0 0.0 0.0 12.512597237213077
12.449883917073889 0.0 0.0 0.0 12.449883917073889 0.0 0.0 0.0 12.449883917073889
12.295848369380298 0.0 0.0 0.0 12.295848369380298 0.0 0.0 0.0 12.295848369380298
12.31665932145322 0.0 0.0 0.0 12.31665932145322 0.0 0.0 0.0 12.31665932145322
12.263689741251444 0.0 0.0 0.0 12.263689741251444 0.0 0.0 0.0 12.263689741251444
12.516173416787128 0.0 0.0 0.0 12.516173416787128 0.0 0.0 0.0 12.516173416787128
12.545530051597751 0.0 0.0 0.0 12.545530051597751 0.0 0.0 0.0 12.545530051597751
12.46857974784502 0.0 0.0 0.0 12.46857974784502 0.0 0.0 0.0 12.46857974784502
12.341282466135116 0.0 0.0 0.0 12.341282466135116 0.0 0.0 0.0 12.341282466135116
12.194594014802307 0.0 0.0 0.0 12.194594014802307 0.0 0.0 0.0 12.194594014802307
12.0999014576079 0.0 0.0 0.0 12.0999014576079 0.0 0.0 0.0 12.0999014576079
12.5981244451588 0.0 0.0 0.0 12.5981244451588 0.0 0.0 0.0 12.5981244451588
12.704236646509477 0.0 0.0 0.0 12.704236646509477 0.0 0.0 0.0 12.704236646509477
12.389551894372293 0.0 0.0 0.0 12.389551894372293 0.0 0.0 0.0 12.389551894372293
12.582732796876629 0.0 0.0 0.0 12.582732796876629 0.0 0.0 0.0 12.582732796876629
12.57925134002287 0.0 0.0 0.0 12.57925134002287 0.0 0.0 0.0 12.57925134002287
12.353975839831893 0.0 0.0 0.0 12.353975839831893 0.0 0.0 0.0 12.353975839831893
12.626727002447518 0.0 0.0 0.0 12.626727002447518 0.0 0.0 0.0 12.626727002447518
12.425737561056717 0.0 0.0 0.0 12.425737561056717 0.0 0.0 0.0 12.425737561056717
12.121482362518973 0.0 0.0 0.0 12.121482362518973 0.0 0.0 0.0 12.121482362518973
12.505940717109196 0.0 0.0 0.0 12.505940717109196 0.0 0.0 0.0 12.505940717109196
12.232147075393115 0.0 0.0 0.0 12.232147075393115 0.0 0.0 0.0 12.232147075393115
12.517289980696756 0.0 0.0 0.0 12.517289980696756 0.0 0.0 0.0 12.517289980696756
12.437923453810683 0.0 0.0 0.0 12.437923453810683 0.0 0.0 0.0 12.437923453810683
12.488405901133193 0.0 0.0 0.0 12.488405901133193 0.0 0.0 0.0 12.488405901133193
12.520436468377625 0.0 0.0 0.0 12.520436468377625 0.0 0.0 0.0 12.520436468377625
12.581352702717242 0.0 0.0 0.0 12.581352702717242 0.0 0.0 0.0 12.581352702717242
12.21246962090049 0.0 0.0 0.0 12.21246962090049 0.0 0.0 0.0 12.21246962090049
12.61571482474168 0.0 0.0 0.0 12.61571482474168 0.0 0.0 0.0 12.61571482474168
12.73260636582652 0.0 0.0 0.0 12.73260636582652 0.0 0.0 0.0 12.73260636582652
12.632529959714322 0.0 0.0 0.0 12.632529959714322 0.0 0.0 0.0 12.632529959714322
12.473669374234964 0.0 0.0 0.0 12.473669374234964 0.0 0.0 0.0 12.473669374234964
12.222553092605665 0.0 0.0 0.0 12.222553092605665 0.0 0.0 0.0 12.222553092605665
12.297167078983517 0.0 0.0 0.0 12.297167078983517 0.0 0.0 0.0 12.297167078983517
12.439288731008233 0.0 0.0 0.0 12.439288731008233 0.0 0.0 0.0 12.439288731008233
12.451816472238795 0.0 0.0 0.0 12.451816472238795 0.0 0.0 0.0 12.451816472238795
12.333667606106909 0.0 0.0 0.0 12.333667606106909 0.0 0.0 0.0 12.333667606106909
12.303030362452073 0.0 0.0 0.0 12.303030362452073 0.0 0.0 0.0 12.303030362452073
12.685584208269432 0.0 0.0 0.0 12.685584208269432 0.0 0.0 0.0 12.685584208269432
12.396825435101112 0.0 0.0 0.0 12.396825435101112 0.0 0.0 0.0 12.396825435101112
12.220423683519252 0.0 0.0 0.0 12.220423683519252 0.0 0.0 0.0 12.220423683519252
12.321683859046534 0.0 0.0 0.0 12.321683859046534 0.0 0.0 0.0 12.321683859046534
12.523763934663751 0.0 0.0 0.0 12.523763934663751 0.0 0.0 0.0 12.523763934663751
12.08575919671465 0.0 0.0 0.0 12.08575919671465 0.0 0.0 0.0 12.08575919671465
12.49868834346871 0.0 0.0 0.0 12.49868834346871 0.0 0.0 0.0 12.49868834346871
12.610773367970076 0.0 0.0 0.0 12.610773367970076 0.0 0.0 0.0 12.610773367970076
12.50090930021217 0.0 0.0 0.0 12.50090930021217 0.0 0.0 0.0 12.50090930021217
12.379210713366648 0.0 0.0 0.0 12.379210713366648 0.0 0.0 0.0 12.379210713366648
12.418214248685555 0.0 0.0 0.0 12.418214248685555 0.0 0.0 0.0 12.418214248685555
