3.59244726037417 9.53573976280425 1.5613855219242538 3.961513952532024 2.4643204028321053 5.230729415692159 5.913772120141727 7.745732253384257 3.408019167336121 7.819483678262372 3.0776236806675805 8.477884788436008 8.010165040199588 2.65679725781958 9.367892119382015 8.1094743799448 4.027290911724861 8.479506923536583 2.7489741562065304 12.00160800447278 0.8641571841065924 3.485064393258152 0.031245293887666895 0.40634112788117416 5.560555297668894 1.1651821192861473 4.18725076843666 10.713669882747215 1.4900239602095846 2.4069636869094353 10.384772704072338 0.6133404259675491 2.1259133023462145 9.742184315451649 11.112715117489003 0.6832519722602525 7.980075053219433 11.466699668024704 5.93608576480767 7.8988940019264655 11.367291266593963 4.951858388210629 8.245671814839758 12.357363282637355 6.167048084624087 1.0099536963295415 0.3057675133743698 11.3273941727462 1.7348796814217773 12.314618165330565 11.87653024377872 0.42406450169380744 11.899537320243384 11.127017148337597 3.941887356086119 5.329778718512849 0.5368152738945569 4.043165546831265 5.2797154191874265 1.5208569098312272 3.6174603359708444 6.233951870489843 0.38290313308444923 1.708331149699367 8.327088137635862 0.007550976979629561 1.081632255437911 7.986315939407909 0.7262769388286698 2.4096755005508568 8.802014623494689 0.5537114826330031 2.549587748653242 9.978285460205004 3.994910123266791 1.6472472378585787 9.667504187271678 4.303437742854279 9.419750911757692 7.572423834547105 5.554128670820046 0.3689032403767267 3.738674690929181 4.983062819153013 0.5807627524094852 4.425655097378621 4.30718970419378 11.903214985318737 4.004568637606101 5.46591423985435 4.771578503254205 1.0977434003185211 4.780605499348252 5.233800327943632 0.5054882541163265 5.419392395786675 2.503833632648435 0.14323824419410122 1.6683721422981457 8.20139124140723 5.754097065775831 0.9062187757832171 8.127082594548003 5.685311107884978 1.854632876518526 6.386506866208171 11.498176518602301 6.569213762460112 7.4453400747210345 11.40416697903302 3.1623461872182945 8.336276108968898 11.354153210550363 2.671384091014076 7.002051414678793 10.639138347095543 2.784141054570171 0.3103367336195048 1.0655520673340295 4.395503196845007 6.55657101484417 1.8747300159707052 1.0502222714980483 0.3774299749588404 2.018542817940888 4.679389222156563 8.946533239974283 2.850116137134071 4.277954124251331 8.492459238919812 3.727195918118232 4.035475883491892 9.58310363119894 2.710686814748651 3.5402789002312067 4.525657868922551 0.5305360013029363 11.501111221036167 5.075252100250656 0.009200354043727065 10.936001453211711 5.227720416994144 1.1739490784556745 11.78494771550496 9.645562023926477 6.9025563342732115 4.899083275243785 10.225654871687556 6.279284974331142 5.429286181629122 2.5031773489817897 10.959924850267539 3.9154626514706226 8.922003090094574 1.450164014493895 6.580345819371702 9.167378885155806 1.928334770553874 5.771185206529994 8.548107140767065 2.037550278852222 7.188336914320556 1.7239952787240165 3.4787492108055273 7.396044503458481 1.1235341101466163 3.511204295527746 6.633529561791362 5.334669889235961 5.009772326114413 12.1541753829018 9.891891287710948 11.225459698334406 1.6312240102238775 10.451701255359477 10.570723870525432 1.9656810259992048 11.534160675871576 1.555800919402422 1.928656721031851 12.017643614818175 10.15737660493505 11.059717115729715 11.059630436754874 10.05814156145399 11.365656748782696 0.052643856233514454 9.337343972106275 11.36439371229217 0.8433641363135553 6.783347978446885 6.480008714639103 1.521785613133084 6.914926662253943 7.09498365841792 1.1510571612004414 6.548670845423042 5.562400321561916 3.1877802749784765 1.9428844556162954 9.48142919371167 3.851047790453842 2.6304097013361583 9.435105473015057 3.528862040973715 1.2671846986067417 10.142529734816035 11.650285736735738 9.384460186287138 8.468003385304252 11.728111073431329 9.847969812888472 9.298202223610687 10.754421383632687 9.587227073859184 8.078158504606192 5.944518390788529 6.977669857327382 4.017855286177998 5.9652718139073535 7.307483356593425 4.94586515623598 3.384083387569601 10.452555662397184 1.2476695465570597 11.48014729183559 6.708890739059361 9.740772686432825 12.340659005914627 6.316074007795358 9.522502645075118 11.551409791864726 7.602773858451782 9.311847970792634 6.208084387855461 4.660493205641452 11.813972789365653 6.987328371666692 5.148718722782866 12.225425500220247 1.3930301873636708 2.7244811544588963 7.958714877276727 5.412359016113947 11.624950710661086 6.732801753404498 4.944552588902689 10.843329246397102 6.391076086453305 9.172208142325461 5.785264348586141 0.7767451527937013 10.971973227770292 9.09875390250394 2.8674766975234456 11.37709837346157 9.060218906832233 3.731567014992304 10.14396612925624 8.58879672809908 2.8436895102852224 2.566267259954589 0.2969596912595609 3.4855968498178838 3.3097004444462246 0.6607092474465175 4.020591865240801 1.7492436258238275 0.7039756768734176 3.7185280206342366 5.841135139225841 8.382203582923383 10.036261311662244 4.961591198814086 7.944932920277175 10.174179943343312 5.688060069658474 9.328824667150576 9.784372210777324 11.124974001073511 3.3778796495131975 11.342253425575906 11.353818877361695 3.141085072961121 10.403061967763568 11.69331565638843 2.803185663613579 11.938022785072326 4.119418279269046 5.1788087097630235 3.3122017520058917 4.791774704391916 5.901042693550944 3.573452182173528 5.384423620794098 11.130632899859492 8.70124412388789 5.12568688089682 3.9196108595522494 9.179377731815794 5.554264880637652 4.344102564764912 9.987795382016017 5.880140677903822 3.7226638460051715 8.598603834966687 5.577470080473377 7.875886925461802 6.436929264143643 5.137760023820958 6.980307374704656 6.7418163667878535 11.823978019604324 7.6374702138091495 2.014023128538519 8.542770192459063 11.448323725358632 9.618518183776409 9.19673829220517 11.525950938683161 8.900630531441179 6.980641707893324 8.278114516851284 11.6669404826157 7.985981606219241 5.2555938987605355 3.6230201730712928 8.70690302267387 5.8345103890059296 4.07158386786808 7.169713317440657 5.779692128775001 3.9006529294836816 6.496552016122844 2.133702027371119 0.08585676285004842 11.527337802280602 11.916712139972388 7.568783317603827 6.4535468618915335 3.1092367410627824 0.035812037590663585 6.667965880224209 1.5913145336654222 2.79483971660756 6.924065102744213 0.6551865584781429 2.886880405176905 7.448460517815272 2.106051434397173 3.089919712384163 11.02713820390058 5.699241657412828 0.051018006319730656 11.091082521911089 4.822855308227387 11.925355272035 11.215875480259246 6.371499020850167 11.740716672915198 3.607888500606374 3.3511825252624905 5.443600595188406 3.1278479552319904 9.515518796245155 2.3982091104506 11.679347958728506 5.60264413130904 6.781540102685938 9.444479185008463 9.518020103804822 6.909280146178654 8.934039084886637 10.303121109773096 6.560682074793723 8.799835266412998 9.091324276089088 7.512268626008175 0.19621643361628407 7.1167153156813665 1.6648430697510905 12.220162848176392 6.351067548209318 1.099195892282625 4.8852889355335405 8.551326645546835 6.512550478336163 8.946236054917687 5.357652200279242 8.711645600868685 8.553233582993315 6.23244117978549 8.444463852279858 8.096794484196781 1.8948023900015012 11.487762658910814 9.399678537726896 10.068109643560584 11.740295660751688 8.863470016656219 9.363298133715496 12.157271060574656 8.953021780376588 10.461941757101284 10.93112266519929 3.727951263470409 9.561136702432357 6.408931955270337 3.1210498470624 9.485119241497713 7.145455587196159 3.13323443438276 9.709345366697995 5.621193431924791 2.977806649784022 7.342662637667757 10.282664871710866 2.5150771339562468 6.569052787221125 9.928667938464473 2.410443228613725 7.714564970573947 10.998360784253714 0.41919809639207833 2.2982187216173613 0.6920238845140563 0.6049115147998977 1.4345122681799367 0.21769053049734932 1.0520858694571074 2.9232979573203792 0.23865817451113536 10.892154274653382 5.054932072006031 6.507287826292308 10.321633262256773 4.987508212291234 7.329363606385169 3.0847437393151482 3.3501052294323364 6.234323351810586 1.390194546615335 5.988353186636165 3.738699456350564 1.047609519542158 6.35708554560535 2.84653753374425 2.3324692993898366 5.826226355553368 3.6508441239949194 1.6129099811112637 5.246653581641328 9.43522930012197 1.806055502476075 4.571238626977678 10.125156791715968 11.936388267261059 1.2110959722588737 8.790597764237196 7.452905910953493 8.2916612023477 0.14967230066936443 7.762089814207627 7.390484666358032 0.2791484002010185 8.771144525740972 12.240235222207188 10.14353273438204 2.181709796721765 3.585067164802082 11.690678139011158 2.548126588791654 3.0208241867260246 10.980814483203968 2.9026807440191607 4.061120477333828 12.152986642675424 10.736107354520074 12.227753449830233 8.0489848382172 11.998846659988594 1.1447122602421564 3.70402786641458 10.201719091921037 0.36836087764844244 7.422778775841262 0.465620878774222 11.638757433082022 6.29476336269542 1.2540590252738337 12.085959029702753 6.64899556744495 0.2904624829597714 12.15999525692677 5.50402822336255 7.617274012671438 7.974874314729034 8.076003912945884 7.05171846726209 8.010561286941716 8.884124378089512 6.929538260869821 8.03525241206041 7.374969129861679 5.837804190049848 10.963057676072468 9.542277834049319 6.810082250829667 10.979266644367542 9.364524022073947 4.047586174548103 4.556713707336638 4.044057102001048 2.0343431567831436 9.152705372986471 8.328524532076067 1.071799144877852 9.081195218743503 8.361239653722805 2.379833167784528 8.58904438231291 9.001029549727233 12.357152776555603 1.9986809499918463 9.093899879912904 0.5590422395856606 1.649166558015749 9.829024265530595 1.7023131523033357 4.700811311652725 8.562272961798053 8.760804962313633 1.6021370228097258 10.79892484585766 9.503433270610326 2.1354356068679183 11.046479998000583 9.56378660252032 5.5404829236380975 9.483373279290221 2.6968924750384065 0.5730718507990424 7.193711010760634 2.7964618517081368 1.081223625985094 8.06056267271368 3.568300974525896 0.18309199855444516 7.120355832624646 0.18031084173315162 9.251816589360619 5.113700416947522 0.031218051924145764 9.96806972388458 5.813893175704711 0.41980608748702714 8.45440716896507 5.626505614811411 3.915016873885732 5.69864728729964 7.270880063789581 4.074630014698171 5.141363392632162 8.077242184015025 3.832919502001599 5.030216181465951 6.579714301126439 6.221680604194644 9.008607768670384 2.3456073554334362 5.272384854458105 9.210966026789613 2.1559661411942974 6.615933729898851 8.712537156038469 1.4935035019138745
9.194246869814398 1.1535279901305489 9.465961126754102 9.745224732174181 5.669311555346472 12.312601183698163 1.9930529141605338 7.827191911328528 8.653546585831364 0.662214896107249 10.575142300514289 9.337647117929246 1.4750754216431834 9.938081933205016 9.270064254057901 1.120697044610449 11.301773320585767 9.798244578927441 4.329376946104458 8.27531924389627 5.0665720709801585 4.667378469156498 8.801755494859453 4.360309342600781 4.49424176093826 5.54941893195517 6.021153550612533 2.9992216084088046 9.206916320977008 0.5668838163857604 3.292699416165695 9.973636125553185 0.06435508137750742 4.139708908788105 1.3629314694644108 1.2719406422355999 7.802114620089263 2.868092165992257 7.737135409406695 8.3034984951547 2.3497534010228756 8.297431609494728 6.961595573932653 3.043010321129132 8.097510909143146 8.067512837953801 2.6405154365541526 4.032996501060559 8.875218379329374 2.762600609999162 4.624274928327954 8.33618742322814 1.8408077198063038 3.5556933035736122 12.10950377730286 11.690041545153177 2.1377238446928697 11.642677480924817 11.393075589583571 2.9422775953662397 11.522199347007808 12.20951395816169 1.5454114307524203 9.062868273982655 0.4012565921014659 2.9272162714177687 8.480870811431235 12.083155803646106 2.962832752119736 9.186635232980224 0.6232186493281763 1.9657207845137634 8.121753536441512 4.658060131428246 2.578002844682004 8.51364694319999 4.31911182539847 1.7442732290894285 3.3586378674967596 11.856637976222574 6.935559042044891 0.6598965235788697 2.0349605185961472 5.5104762531603635 1.4564262885159203 2.3414939653091977 5.012418576187765 0.5617325695266266 1.09796677854231 5.411387939937751 5.444400767450942 5.431208094116426 6.213524902483741 5.779674060606609 6.263691942633031 6.498755732197712 3.3822825265986607 8.104125932316544 4.95425371141075 1.7886848253477403 0.8262562589038343 2.9413432700592628 2.2363512240973735 1.0024226726508305 2.117679452440521 5.95556391406274 4.679761393891635 9.3002616479794 12.212192357375024 11.491192204486927 5.593157813992458 11.43226742179357 11.608169732920462 6.231812763158972 11.767266646192523 10.75592801857898 5.08812384139443 0.037989666981689325 1.3949352256460668 10.721034082781074 5.629621416306085 5.283497491918724 4.286223574592876 12.40258293959544 1.313648923939058 9.711589021123004 2.373373144783257 10.88411745069624 4.028150467135037 2.1765544044508385 11.782726615605306 3.7102307093476266 2.346265253210161 10.96978885251066 5.028663378858408 8.562169570809003 9.971480948511756 9.299651222112177 8.631882696380256 9.020063717252345 9.238795500451067 7.655350800869298 10.41057646977872 8.961014357851392 2.470032212207729 11.727427015103022 6.588799776448787 1.9201506248748 11.251444330716602 7.176689717269545 8.092191483728756 3.785475040736183 2.9966677859030675 2.6633752623981923 4.036858378996064 12.382862446782843 2.69655003963126 4.134352110361436 11.405072326525158 1.6605203085720004 4.093690273001792 12.360799911867424 10.61315065400212 9.478580747233671 4.120225111719942 11.096944297954865 8.812182565285319 3.571240476681711 9.507519916408445 6.482149657075039 8.644552147542866 3.2676096672556696 1.4594285871690067 0.7684713530849899 3.0405187869771932 2.3538270593612958 0.424274630364154 2.02749837381109 9.400857339363936 0.7728925804376056 10.729916402032737 11.750623198057571 7.999033021787759 10.277727868797335 10.927607179318334 8.098407861437845 11.577511405180852 11.572092318400385 8.447010862306385 1.9792871879710712 7.957175248035184 3.4113088994687497 2.571661890265319 7.389628683565008 2.8168662238283924 1.9016260684551338 8.905141704494161 3.151952651922663 10.331059157319588 2.3085683414913243 5.555049799138551 10.31830250246166 3.0594669042026887 6.148296538385979 11.154934755341245 2.354836130692831 5.043986313892832 4.762729481151203 10.681954369607912 3.068934733980057 4.879121499059031 9.899824426301992 2.4878466813940925 3.745971766757191 10.705574113368293 3.276367409799735 2.482552171321222 8.624545128302795 9.085179962313271 2.772903103717429 8.296970675676619 9.935814637126752 9.641826064868713 0.35169374898402017 9.104551640344596 2.8659245312800703 5.1239147294870335 5.4285546102446105 2.6988048780387643 5.668215280319619 4.6587079303077505 2.9130892727762747 4.20157370178075 4.936663480298061 8.931801119919909 7.176191410439156 9.07496467229032 8.130349329265702 7.164543488278842 8.44550348414446 9.704712386863653 9.524923282459737 3.786994876568866 5.6163539969470095 4.204289474006363 8.572646471917906 5.60657472540065 4.761770240502706 7.767382634011233 0.8780901354007725 0.36981716840522416 2.740239090985509 3.5716889528290605 6.111932597438429 2.1338744244281243 3.3304087855552913 5.312461576435015 1.6342719962813235 4.45218466445353 5.899741091388547 2.6201596025328113 6.524630314365599 11.21757192392099 8.201183645205326 6.660406467975513 11.85437068014431 7.402335507739897 5.912049270099126 10.467894212944078 8.016212149765378 2.957052392887238 4.44809854844435 9.59988108742082 2.5046645369196807 4.9332500785099045 8.878943222886521 3.744489303936787 4.103232848803718 9.147343739404146 8.444133140360895 2.1423082675324374 0.4302082189469967 8.852034654045582 3.096117371577711 0.19577603328983187 7.83815466159706 1.8644025482251654 12.237269648614289 4.612103783995732 9.233251836963003 7.749555707154111 4.197562331796128 8.991859550652396 6.920435429742622 11.005953470726055 5.125409649978197 7.676653417868376 3.1459355969457303 7.254624905542196 11.229668322228653 2.6892124715537995 6.446744956775986 11.32296381854801 3.2216906928354345 7.838179576938579 12.000287377752615 6.431845582547392 0.4052256060055047 11.72420047837626 5.601728691475128 12.320686212021206 11.718594526534396 6.691326406801075 6.07149499815246 11.36375023261525 10.677444692792903 0.3051082891781414 0.21664138604524472 11.166271235732568 0.47706899327666474 11.837789520363156 8.635993727730956 10.553528241746218 10.823461051767286 0.19855658540339574 9.199815448643982 0.49609559382794655 12.336681861276654 9.174675869050917 12.031942319153 12.239275333606601 9.94728815189643 0.9213979820297754 5.725906753607767 5.482645816683205 3.3442368000985527 11.45064248616412 7.231416264916883 1.8672927278414149 6.603562116299025 5.241328276397158 3.153322995706229 3.0036191661869767 2.7023926872175563 4.44198183210134 2.872302858709034 1.8751659757615418 3.861828104822352 4.001142236928019 2.528209534655504 4.780755730740481 8.44674925122043 8.945803541853804 0.9269154844092443 8.170101756659887 9.691407594492299 0.3705235183372989 7.625464848716791 8.704897104702827 1.4084268830788162 9.581705345782426 4.711266843242903 12.052846290687768 8.34682627405692 0.7688189220991853 9.789412090358818 8.274285257223216 7.53325316975353 5.07425845383889 9.371494609383337 6.251209356531818 4.372243791188568 9.22683613652176 5.568616202595859 3.6801329767922035 10.215028411863791 6.617539622891402 4.134239991324599 7.270670385480682 5.521351799733577 10.780133272865067 7.778768945085594 6.242538817683069 10.248003866364703 7.116307387097304 12.19972222894457 11.635290082164317 11.647934617985406 8.411543873653534 7.104123785094322 11.321942289545714 8.779319229821244 6.2738574019729425 8.674139115597141 4.189265523070171 6.909161237705098 12.21524448671115 2.22343261951957 8.115599447086224 0.22779224714224752 1.872313169157572 7.365249021888285 11.3519279030643 1.7564942041046894 8.082374839170116 11.186876223169103 8.961101561546709 10.461752581259546 11.908773328351897 9.440136375269255 10.004331826305071 10.701512912700633 8.474280703599357 9.739855476076752 7.532381132800351 10.68778455952345 4.184456862156929 7.769188996271389 11.43848379950266 4.739981774344 6.539155958471403 10.799903596360704 4.119539939828159 12.345713672577434 4.168785112341232 11.417966015761442 11.476081049855416 4.353133724243197 11.886922573839392 12.210709894554622 4.411709692155282 10.520291176159352 7.361972654478485 8.03041389443143 5.176772626520418 7.471114308004172 8.966844547766929 4.956259396403061 8.870795906209683 4.811264566430974 11.404412069974892 6.983359124749842 0.340393395837901 6.3248466483923735 6.19396635939102 0.7725300622184985 6.090069385255164 7.562927341503123 1.0865580436605815 6.538346209872023 10.370338193224907 7.223181744544725 0.21876915621100057 9.723373977661677 7.920063846842054 0.5357645548280427 5.89842057828802 8.622153255516933 11.104991953265628 8.593239001683683 11.120775822118162 11.561478382913126 9.520799793438279 11.448836123903966 11.66336967205667 9.917601522476078 0.9471093687107096 0.07276899220860529 5.392801095164287 0.8634174907800038 1.8362731276497748 5.15016304177771 0.05951652205444195 2.319805160516569 6.010028850624125 0.6667644374686895 1.0936439667886957 11.65682939490783 7.453162804439452 2.787814935616784 12.457471436962654 2.420911616402252 10.77675724408919 0.18748545339925496 7.337044855288336 2.9048049217210776 5.873966170586739 8.36799185667764 1.904391671363786 5.56816772644851 7.843175102913217 1.0861681185658028 5.80290761657344 7.665242191452497 2.5057608119465336 6.803956208139477 7.44672218865669 7.523972205037557 6.064580990880829 8.010506536557438 7.886988730975063 7.044140100386392 7.814410341129081 6.59073071541654 11.643462314182676 4.936950006725533 8.397715859110273 11.865632414511074 4.021024679460492 8.322483985392475 3.837573019853227 9.050410603222963 8.30965258450999 2.3668577829759365 0.028391031661344476 10.296140306180163 1.7166421153444256 0.6994932300885598 10.65474681666874 2.8184483480148734 0.6737531907648783 9.653037968552438 5.609340328309302 7.8168146715857025 11.528938946888802 4.8389330531882555 7.544365412071177 11.02282115693468 10.899303351352307 7.7056175023846665 11.957345786643947 9.583088147236753 4.681841824908504 6.7712174493829975 9.518794108445967 5.32163042211415 6.019534053413772 0.11056058222521548 8.340298454578837 7.155499219307304 4.146585543047456 11.571207823776447 11.990258952791061 3.719312351331444 12.351680896871327 12.382413970635495 3.693836414627868 11.691137820180028 11.09434064476609 1.4342018038806248 6.319601969002542 8.1010488876389 0.5396251869964722 5.9170946267568025 8.197197190562225 1.7058288571250104 6.090081842925924 7.182669399234198 4.675799854590052 1.416885641524649 9.025632296081929 5.316647353810272 0.6805550789996717 9.073295344408521 5.038280700684892 2.1126340957828447 9.599594560993348 5.381526903126763 2.453774951866327 5.354319350187589 5.981052308437075 2.6468688486415965 4.664201763112776 5.483206411867392 3.2305231814040583 5.897386591614965