-29917.565461645143
-29911.399992140796
-29912.687788433577
-29914.620147306712
-29914.265674405196
-29917.444037511428
-29917.873791930928
-29917.234318967803
-29917.465422665897
-29917.66623152216
-29914.953921869095
-29913.762371696823
-29916.7869106188
-29915.505814585067
-29915.933865027706
-29913.02983103889
-29913.108492891024
-29911.647092186944
-29912.45164913285
-29917.97476045104
-29917.67919720234
-29918.065787564177
-29912.101564339093
-29915.727474708445
-29913.996121838045
-29913.605435346595
-29915.073468825492
-29915.48460453586
-29911.890356788543
-29911.113741035824
-29916.360107682056
-29916.14285852401
-29916.76225764925
-29917.868521357985
-29917.380920162326
-29914.527317575456
-29914.83573670641
-29914.306605632748
-29916.17206368597
-29912.94547778976
-29913.186719224967
-29914.797899141086
-29911.89491782465
-29912.711064507108
-29912.614599198903
-29912.566895330026
-29917.1812013941
-29917.379150061806
-29916.875786263874
-29915.373105618353
-29913.675821944784
-29913.729813276022
-29911.65855321366
-29917.183723617272
-29914.80838749688
-29912.553762299827
-29913.37996073143
-29913.514957767355
-29913.497177985195
-29912.334696781905
-29913.08837483465
-29916.764096458515
-29916.77483924075
-29917.68664196485
-29918.145918831044
-29917.605571633132
-29917.115270387905
-29917.954816683578
-29918.035482518077
-29917.460663939088
-29917.18542187974
-29917.38533738627
-29915.97307336649
-29917.554368924506
-29912.45576186141
-29912.45913620906
-29914.630549674537
-29914.425954762384
-29914.523423082195
-29913.793984249907
-29910.927166590518
-29914.321987819876
-29913.327253369338
-29913.846937330803
-29917.571129504286
-29915.342280970883
-29913.967143619026
-29917.29703426872
-29916.910687040592
-29911.82337746378
-29916.9727220569
-29912.586059083165
-29913.670569603473
-29911.610900638236
-29913.617953263456
-29915.527634441394
-29913.712226966803
-29915.028887462904
-29916.088010034175
-29913.21964295859
-29913.58048849409
-29916.979675653936
-29915.942614303964
-29913.61675446594
-29916.425605891192
-29914.556131573772
-29913.866816471225
-29914.437653888708
-29915.28180013276
-29912.400778539166
-29912.978763298735
-29917.742592379676
-29914.697031303087
-29911.77888780356
-29913.84526178984
-29916.93193736265
-29913.919045729304
-29914.726577287634
-29916.336251461824
-29915.82396110547
-29912.59945973732
-29912.42170980775
