0.3063960497375949 0.012080585313617906 -1.1656165601474957 0.05699184400401152 0.1547773249856173 0.5097744235603672 0.49366491959301434 0.21140227256851335 0.03660299593501438 -0.30745328735751565 -0.5782894377126299 0.5606462707095698 -0.007602237827290132 0.7569350846754125 -1.1570864111892978 0.22430021157710403 -0.82655952984177 0.6024017573798013 -0.7364978998669832 -0.40541206069219216 0.4623159729680877 0.666206253430272 0.4493671261169035 -0.23310623990450824 -0.9378145060647205 0.9518663561720961 -0.5439515836627085 -0.5776327779652375 -0.7254236443306925 0.7451144378914006 -0.18174948269908697 -0.0032131076206589823 0.12306868102842677 0.02023792431342966 -0.57748982462947 -0.2747385707333139 -0.7058896880628229 -1.6460176727520686 -0.8475127350546694 -0.05359695938984963 0.3353921798596288 0.6093519634453892 0.518213812576972 1.34997159879023 -0.010330435391730597 -0.7885997627685452 -0.6738833103595556 -0.6050512791875063 -0.21964882884802173 -0.02606918628322607 0.07178468604246992 0.8264754547683959 0.7571549139957026 0.3891434054391556 -0.287179367599828 0.766669538354357 0.46218407537591366 -0.044147126830859446 -0.3474817640343112 -0.06293392052005936 -0.034292088413650626 -0.3390853124404999 -0.2247853787436387 0.0759321325519402 0.6182145560423417 1.0606075648342574 0.606552032102749 0.014984646334290324 -0.90666636259669 -0.5382591612636214 -0.36835860748332044 -0.6925477195382782 -0.589190658006166 -0.29750440367491987 0.3480936865866973 0.47237335720408974 0.4730541853211982 -0.2380468717392352 -0.1524561330516084 0.40392776283718174 0.01946967868883744 -1.1251872484878558 0.13565268834102442 0.6263906640952309 0.051285023427221355 -0.05489896603072481 0.5459426459508082 1.1252188730567396 -0.08423448177004848 -0.9600270376060175 2.0672728711241044 -0.7746384154924466 -0.10269063159270701 -1.2190397129636426 -0.054035332478848876 0.6725239681181837 0.6642452730491591 -0.43530576292783096 -0.22883280934013495 0.9265505031151268 0.8148707806499321 -1.0464919513684816 -0.5269306236246796 -0.3715971690252761 1.502637019639167 -0.5210962763310897 -0.06438222293081171 -0.10584100429623063 2.180948540973405 0.05513730729377601 -0.5053043036041556 -1.0790351754118255 0.21531626291093886 0.627164566146778 -0.7406458605970857 -0.8219235737316555 -0.02903392533850484 -0.779998137142463 1.2571527177852801 -0.17542431181200757 -0.06578810213940282 0.4209610641703847 -0.6697512904690531 0.11103463268202812 -0.36388000288667655 -0.021946679474420267 0.14520896457089186 0.9064349633121744 -1.4370538344217185 0.46322434371496995 -0.6865171970734821 0.566316838731786 -0.26087261138449913 -0.11600688908563891 0.6351396139324545 0.5232200075423118 1.19267407848592 0.3370605687009872 0.35080002977426683 -1.4490544584270204 -0.9508366293560012 -0.4121686626897353 0.35046887168709323 0.4432923806777333 1.1181889627931516 -0.6421605253349779 0.5852550703971856 -0.6268979427489526 0.3948836503570425 -0.4308626395548128 -0.10740577768018922 -0.0003041615039801213 -0.09050128861536673 1.24789880328718 -2.4172838293381727 -1.6445390313240127 -0.3206121933369769 0.39622088111122733 -0.0687340721416042 -1.2042530415727712 1.9951840235776543 1.8233646555080856 -0.21796732738054075 -0.5370463719024429 0.9202075916162344 0.000744591475508395 0.1956028436424115 -0.30356063717132886 0.9167265750461695 -0.003791605831948309 0.21561425376733193 -1.5694324799971617 3.1630988928410235 0.09926386529934518 1.5582026727196132 -1.9418225772373783 0.758407812566197 0.698237570834204 0.7657231152806877 -0.7498329264129925 -1.1501295202554902 -0.31448525450363257 0.08696422199638572 0.9403688970554579 0.16704431527842845 -0.34905322228648916 0.4690777171719534 0.31762842811830455 0.1118095631748397 -2.4921841781914886 -0.45826211461368815 -2.370170677900454 2.033635642685633 0.1636373464794085 0.9033995189199602 0.26673344104065033 0.039302140033732315 0.992910932818232 -0.6938939491535275 -1.1674279023246217 1.4225800662855759 1.0612778514284045 0.5531900715418409 -0.3195999500223786 -0.15147500008526174 0.9337349366787081 -0.5863567881017966 -0.6598003499039282 -0.7441682719280474 -0.8483012923942359 -0.01830394051551041 0.5245731791360966 0.8891275823819784 0.7191079865253099 -0.12386700856000603 -0.2079917042250676 -0.09154387094726814 -0.8410106722700935 -0.17920717589320748 -0.4292924668542155 0.43948894777124314 -0.04327989373455773 0.057109857639114546 -0.10757058539282766 0.10615596443348815 0.12305325440945904 0.89366146569659 -0.3030045075575427 0.09299782978497532 -0.4461427056423349 0.20598033022199363 -0.3863820406439346 -0.4805538361323531 0.24354903250438703 0.6248428599921368 0.6521775432513478 0.0072307134204843216 -1.2711927408181138 -0.5163271370772206 -0.2760549755518923 0.1089137296842834 0.8659287756680117 -0.6293680015559999 0.595031433057659 0.22045229858592358 0.3124129453556362 -0.2164930568278594 -0.2401315221824058 0.11298352887828284 -0.11567933054289109 -0.22713331015052496 -0.47147475664922034 -0.8421417005507432 -0.6340450953166952 -2.0064094599798286 0.28638489672299067 -0.18794069911146344 1.2876999944445178 0.5149202294273648 0.32322726236232074 0.7348505940715473 2.1270211948273303 -1.163483315854577 -1.0269122294643411 -0.29867348428235657 -0.09916024984194535 -0.2524640756058297 -1.4299856147210277 0.8501956812034713 0.871421166241151 -0.7340237272948779 -0.5596461115798298 0.5547612726837026 0.6481272844413741 0.5033687771443396 -0.2635442446793913 -0.1530577711913493 -0.10589319769040473 0.31208667236446896 -0.18973712889025388 -0.9555659165108704 -1.171236991658067 0.09734710789260653 0.13437305029765242 1.0070743688028077 -0.16746417642466646 0.4325377132643906 -0.11786913910535829 0.3239523134538034 1.590441735258977 -0.41671205908604364 -0.7095979901523457 -0.9353578169941118 0.0757855796717469 0.3774163468102145 0.20434947948679003 -0.2586195536842643 0.33216390273031826 0.9534031045315967 1.1560733965437509 -0.48501778544097757 -0.7118955279372707 -1.0173392410639253 0.12095883377427555 -0.2732342182736456 0.22185457825008886 0.6234220683852102 -3.2521719336502954 0.7205346916695075 0.5390348630873814 2.027937563859591 -0.3646783304182558 0.3257934804276002 -0.08637621070339964 -0.022124599813181253 0.4811994401361519 -0.01803963111053022 0.0729033730279454 0.26621716352586405 -0.3146377209210969 -0.14178014139500097 -0.1086044259739807 0.1531963536517426 0.30391005009094757 0.6035476980587863 0.9922511877470458 0.6381650310223397 -1.061452686443372 -0.6493462444501398 -0.4464491811391601 0.5944467641987826 -0.4641052036580265 -0.5371615573240685 0.39534439204354493 -0.862289636253528 0.6583116811735437 -0.15686711763511046 -0.1680781558595815 -0.45742187810057994 -0.311192956905606 0.35011534500241637 -0.17591025030949062 -0.0533313644332888 0.3698202796305115 -0.07159313885695412 0.3010993201150298 -0.34642401219375824 -0.10345064968718311 -0.281080968011574 -0.3247221017402924 0.21406079323728297 0.18745450350366427 0.2905266868055061 -0.6700302551620526 0.008409821330250032 0.40497934403014774 0.39917816396733835 -0.22016999145881436 -0.5146268665566621 0.11183167466202676 0.9541407540285696 0.8606952951832145 -1.4553552038340676 -0.46787829754721355 0.02842971609560265 1.1914399489685028 -0.6285884430774981 -0.41323438495008835 -0.18790418944657317 -0.120229926028051 0.15207149601868003 -0.07971988172914658 0.4969317632697442 -0.5257841687250622 0.13468955309680677 -0.03011661687972233 -0.1963227525275716 -0.18217885692702174 -0.679948542717029 -0.9801523476009829 -0.3077883020994312 -0.2157510364555123 1.0574471648284047 0.5992552413310196 -0.9142290054352965 0.3963252678995755 -0.28177773696828246 1.1110328113643446 1.3337271119069096 0.8516758652934235 0.3203501979248418 -0.44729815940301676 0.32441511202283485 0.08124326035220847 -0.7035137316314787 -0.6091005095562155 -0.21050855710965038 0.37719728882087294 -0.3603249385455665 -0.3244482792536154 0.2598233441843783 -0.49831681654272886 0.23794582738499664 -0.6217045714734712 0.5271288556784147 -0.0071456099058457585 0.6365629766425424 -1.4828937755739688 -0.860610448778892 -0.09646830483207902 1.0752214580926902 0.8110593773236419 -0.15532676973118412 0.06417679178822495 0.3077271098441926 1.05032006686532 0.17352220969328824 -0.16886311365472206 -0.44391355920150005 -0.18111442021824936 0.1436984414636364 -0.23655228947157972 0.08569743946882015 0.06782158762966384 -0.8147280844244807 -0.41200205520488403 -0.08258820441587712 0.7548517197838226 0.19285741968679043 -0.024250902127564686 -0.4965484117883965 0.4365077536557322 0.33014970051376685 0.5630453670693658 1.1130264447556057 0.5700737346710569 0.17233076048834836 -1.006860967240421 -0.7628640485653377 -0.7413763110052071 0.7786418802248848 -1.201525358228963 0.5091000232011619 -0.8689691051562325 0.42457783498736557 -0.25349405953224086 1.4771033941444367 0.6950535166792675 -0.2017153842980526 -0.296422997685283 -0.09866942624845587 -1.4865817659485172 -1.1798093067081101 -0.3668689103116714 0.681716176140413 -0.11299021374650219 -1.0844797434661648 -1.2266481214385196 -0.6489477234601404 -0.3865015969409344 0.43256008186189376 -0.8998508823367536 0.16812854948154268 -0.8464549832141163 0.3639139414484055 -0.46646624769103534 0.3311318619213781 -0.020031207619262276 0.14949396509949095 -0.09273223482841449 -0.4448026466746727 0.1394293817746373 -0.1457093012460781 0.37363759649407263 -0.04524627343230917 0.0018727915426806458 -0.19933171455722445 -0.0721865494665789 0.3081012053541597 0.6276232509507514 -0.03686807667094296 -0.22219884896338507 0.3215532170940075 0.21482698197934616 0.16373710528206642 -0.0859604633222197 -0.3677729101831795 -0.17641881451479294 0.4582029792409786 0.44889532868680754 -0.11702401749624362 0.3401685182023496 -0.24063905794644364 0.4909940576290705 -0.4012592148660831 -0.14275356105186382 -0.3112970865836381 0.7210694811270549 0.1335567250439442 0.029873904741296937 -0.22276731987234538 -0.13028731026405302 -0.19177112860114714 -0.14710592448328857 0.26112535082525345 -0.12777431403421222 0.10363525489416346 -0.5431082618258066 0.46569208852917215 0.017098350243183458 -0.027787197415597303 -0.47329304080488166 0.39690762276560676 -0.27294214095452346 0.770912372791111 -0.6078622662737402 -0.2900312352263263 0.2647976574705181 -0.18341967131265832 0.6082175927306299 -1.0148283017166135 1.1996343118538373 1.9531282320581846 0.9063154070151747 1.8806753163040966 -0.6806568816379633 0.33990960811400817 -0.9137111852586135 -0.2712585826045135 0.8471144711749863 1.1720810848259169 -1.5212952581703025 0.07053615834734948 0.9052010909050732 1.310474312026556 0.5942953262225829 0.11523170148251123 -0.9427407397217442 -0.028112184855183846 -1.4309238102645807 -0.017820316010872535 0.4254131864044673 1.280767786101059 -0.20575047359937468 -0.49593546079474593 -1.0677742577860256 0.3087208412160296 -0.3121571205910882 -0.2966286859381859 -0.14578026369332958 0.4881128794265336 0.6489994026336823 0.5130978315066455 -0.7408248093771113 -1.0157816667688184 -0.2898723410509588 0.07295479509117113 0.047477733865989205 -0.13457950988150372 -0.4105103011507059 0.6444809459380385 0.12691839379182013 0.5980015714295766 -0.6560452537368702 0.12233026020050544 -0.030373984306167046 -0.21192214962772535 -0.5675679375300677 0.23925863265914926 0.16158483482575398 0.3282938782519507 0.08928567104071075 -0.3337700708751736 -0.13362048840234408 0.07533280840504446 -0.01941825662561172
-0.8073053095978484 -0.9457486733101326 0.14500456186956961 0.08382773324993303 -0.4819622864441055 0.018484689067748812 0.8092526631322065 0.9531141125362681 0.8500365299177877 1.7219832296451052 -0.6999337275897043 -0.3029805962981428 -1.6047445250348944 0.40863622405644456 -0.2106463682390953 -0.12934422962449335 0.3149732498836446 0.03251339924667304 -0.36735613436073505 -1.0722232946963146 1.9908581425087903 -0.18853102439729466 0.7007168856126319 -0.8731846858994768 -0.30340457120943876 -0.10741014855556341 -0.16435108471698148 -1.498426323991929 0.011464034775541547 0.49691273710635064 0.33792008848780514 0.5752953880813124 0.10247491603747513 -0.17212507223544551 0.6265436447333275 -0.5097937068340769 0.15661694929751738 1.4048631086217869 -3.476136359154536 1.8082044028278792 -1.819780794811569 2.2115966048765654 -1.8485133868595713 0.6238609556948418 1.051169816460125 0.8046665864234206 0.4848267524760941 1.226282767679301 -0.729499357061963 -0.3630896457748972 -0.4413555686663367 -0.00421069564723791 -0.728395582474823 -0.25875685059307696 0.07658776385806809 -0.3537737676906101 0.5923104345820702 -0.10847869902939382 0.3529936949914759 -0.7064041658053963 -0.21608707963869236 -0.2547546714122193 0.3941146334015019 0.005308042476474729 0.16630023802355232 -1.1634234091509188 0.11897085680996931 0.06468818420700473 -0.23007799460114567 -0.3988403210119454 -0.3977810265094956 1.307073513875123 1.1533691102387105 0.2911797470084727 -1.858717838196399 -0.39058373743010794 1.1860226346076737 0.0886017575998087 -0.3566336057369084 -0.34428639702546515 0.37971594147766863 -0.3368029441642264 1.2332977655445534 0.052700929938141496 -0.26497274959580175 -0.5823584655756808 0.5718768493180667 0.21783671533994745 -0.9934048417355149 -0.47456188021497625 -0.5918463504614582 -1.72442423498643 -0.5251046261595342 0.8069862356955328 1.552317674693746 0.4833987617803158 0.2442062064724117 0.3957722236095829 -0.9481554829794122 -2.1516986429693525 -1.2139715544121157 1.15833879553916 0.36727154506672877 0.16062529912596207 -1.5204989875212525 0.9580570583638405 1.261705884373601 1.292361147365613 -2.3804016115998428 -0.9981616396942099 0.6751248960761406 1.6251739965338399 0.3708543773219806 -0.5940477289881511 0.8808776836683604 0.722729128217665 -0.021184861607731253 -0.04575535185824378 1.5920725859941807 -1.74226332005038 -0.1493219582980009 0.4390971116494631 0.17739737637797834 0.23621778895029638 0.2193860621049383 1.6226419741406055 -0.22774728958544002 -0.5048607883088337 0.8824221453373448 -0.16500260225805133 0.29452680910383466 -0.1798797764801999 0.1713228880491243 0.10044580142258829 -1.1631238756326292 -1.1464536140658 1.6273823170390684 -0.32844711600036336 -0.37111894383727695 -0.4584814297133458 -0.3580453984827705 1.8027598347735405 -1.1209495562574243 -0.0005985528159473564 0.7686636859662505 0.8477755017977529 -1.2669871873771985 -0.6288195852516977 -0.6335982375872636 1.2714740195039584 -0.363444972231787 -0.9050982467786218 1.4819501807137767 -2.2671763990243985 0.013916610081092162 -0.9115715132077913 1.0686751723337402 -0.08196188368578788 -0.0022533148105509577 1.0909018449424244 -0.17464552466445404 0.7740668592596928 0.1649316398107998 0.38929870007009726 0.44243388933218003 -0.40797133677893604 0.0089410112433717 -0.15213705914929282 -0.6482404129804706 1.0441165091577695 0.7940790407155615 -0.9218533547497736 -0.15060365322390193 0.02159418123100797 0.5672642902467198 -0.28187235356461776 0.3675523095319412 1.2521179835748502 -0.5780863205628883 -0.7268313233114966 0.8824956788877575 1.094342495192857 0.24275636139976262 -0.9000393441984758 -1.1354670331473091 0.2682696751795186 -0.04562294004543756 -0.1860671362378344 -0.1953012532415927 -0.020036606935900977 -0.3332098274963294 -0.3194125166019209 -0.5810821699664186 1.0919158880292357 0.28977052536577197 0.5713351178819838 -1.0235106599819597 0.01145760701763833 -0.3131673070231574 -0.3482808628968389 -0.8172467370812764 0.2327642831840572 0.6673689062798055 0.17403128811922286 0.10940583882935351 0.025344649412375707 0.471342087726098 -1.056612327631935 -0.31789839395023956 -0.25177399151734053 0.14903913695025944 0.461369035673786 0.006607992234820878 1.4729402639056828 0.009246458298932463 0.28341527257170546 -1.2400785359118127 -0.2090168030554723 -1.6538849913152869 0.09067792340254706 -0.8943237818709372 1.0993078096179325 -0.031500641711442526 0.4598829380465628 -0.05512573732955023 -0.24225731027615693 -1.4777842222615452 -0.7710715240767947 -0.07904136760488323 0.6042038435855466 -0.2502421282538464 -0.2775642131075671 1.3251671381520402 1.123592136086594 0.12794272129127646 -1.3551143193334338 -1.442274716501026 0.42815603925692713 0.43288841173558995 0.3881671575688153 0.38385670311891956 -0.007016283416833078 -0.030897460909804855 -0.8413037780304802 -1.7342283655610455 -0.8638865484270024 -0.005779068575622305 0.206005012812342 0.05205635437560713 1.7295880385755564 0.7875486957962115 -0.04050541631321411 0.8688760312217939 -0.2398674698877417 0.233715591353733 0.16158714881859912 0.38292339267137276 0.12497078314714605 -1.280112154794931 -0.0651440407975007 -0.8559248703777647 -0.14433041862068047 -0.24741700010022552 0.08677318903150216 0.01480286934078741 -1.0563768145823615 0.7786012567949364 0.08249975846712888 0.7867449689479934 -0.35262525590846366 -0.2422321134651764 -0.2590774671572893 -0.657798231872235 -0.06828412908837918 0.03698634741636211 0.659352206622916 0.18089047713290135 0.06268169529993721 0.23662916545610216 2.831010323433331 2.799691458715391 0.8280667105149158 -1.265106682525034 -2.712537746416019 0.11808356910900954 -1.3671180286625295 -0.1790883909271561 -1.3555575775184396 0.27300898963671694 0.08177959247165272 0.13893238753356071 0.6860078615372315 -0.056375293465935165 -1.3300944002503285 -0.007519705415812856 -0.5931061910104882 0.43426086660308433 0.7742164974636796 1.1853747166110293 -1.6882441855214474 -0.6411786210376829 -1.1420138331268912 0.6968502035683741 -0.8213738718757725 0.03476080051995304 1.1352400047381674 -0.42192445652491856 0.47418701337406083 -0.02664845582546378 -0.056850433330140795 0.23500525669943398 0.054789694146370166 0.6150587840221794 -0.40137902827339905 -0.5737421846615797 -1.1120900489842653 0.6796212412845973 -1.3754666577375407 0.42204118460844087 0.03331918297742004 0.5451777427603256 0.061561208542248815 -1.5628792522596762 -2.4048697719445356 0.31320253113646707 -0.5051556938414332 -0.6140897352406908 0.07277867452462304 0.13470780792925185 0.6038153498978762 -0.2795272503712089 0.575790582550176 0.23947229133185205 -1.7105970992953508 0.46735687782610474 0.9756804278725584 -0.1154085933800077 0.26325499557374665 -0.3205438019928866 2.177080573377567 -0.5238360438597558 -1.1677012105906666 2.5692861626818138 -2.0473205963718932 -0.5883612201263351 -0.5146590053461783 1.6575426426725326 0.666224251152401 -2.0623985737509387 0.5493447296538218 -0.35228278496738036 -0.7662357932510482 0.12158823982815833 0.4623694519138424 0.5381725150870861 0.08936923189345254 -0.06344119917378105 0.28752106720996284 -0.0831499904566181 -0.14258206847100605 0.3347352630019203 0.48077186568043007 0.8377392006076734 0.8012117951056008 0.3785545741797157 -0.10412093628133036 -2.171034624293803 1.232778916926606 -0.3782208449893809 -0.33170573214697713 -0.6933054236399092 0.6627044109246005 -0.6390898568294542 0.2383502619122669 0.021644831963285305 0.9445669942972056 0.5496720310862533 -0.3026119001048143 0.3016590492732418 1.5283858464684967 -0.7014115976868114 -0.812493024446375 -1.4184261920182024 0.9256914975489413 0.9164039015994282 -0.5380879257930797 -0.01963114396736619 -2.7083543044622904 -0.2116714670695 0.40815877019939384 0.6798076462637905 -0.03200277815884166 -0.05690288383463103 2.029132355498641 1.058089426398094 -0.0021509849047317794 -1.4396151673909916 -0.8265867835352797 1.143612802182895 0.6664631066360844 0.13104295748315495 -1.2547209684153358 0.5510786816257929 0.5134405595580448 -0.20843470529975716 -0.3118280193864436 -0.9601586780878755 -1.0527639004201226 -0.1329517444700936 0.1142567391637516 -0.05592072242701982 0.6815955914021488 0.6691416819095121 1.016402845292585 -1.3158456036407984 0.3118455028879404 -0.04001922070541494 0.0738305128279051 0.0376427500534384 0.40596896163692664 0.9985539900366222 -0.3146539188710129 -0.4193317560970778 -0.7082481609926706 -0.4861346726542402 1.78951453972786 0.8907676890885626 -0.27650620415669797 -1.065275916844204 -0.44011732538386134 0.7621091726771843 -1.2051614123196535 2.194758193162988 -1.3523894642031031 -0.16059007501265246 0.3940845514945148 0.1938498655070468 -0.19732368298826017 -0.38598660497772874 0.032972084050646444 -0.14540488263178186 1.6889867201144269 -0.5364930705021341 0.1695262011600177 -1.7579681323801466 1.1263609570809827 -0.7159486149607218 0.14389950173084892 0.09393988198327047 0.13076245012825868 0.6471122129132983 1.0202348174441656 -0.6707774177407222 0.15264356647206617 -0.5108008079423526 -0.36325933858354215 0.3482422963494196 0.30052596411006305 0.02932883087110433 0.7865655059473357 2.2357541759593755 2.2900497040781462 -1.0023461100892028 -0.23837443028198302 0.34700610994947334 0.6399570899257558 -0.528011258283368 0.6276998698249576 0.5923919385522829 0.555869675256533 0.5778220111579081 0.363035138387878 -0.5687696711476528 -0.2823395230090234 -0.4244821899497657 -0.2035583510440623 0.3607849089011206 1.290324062330926 -0.7875911189983726 0.7497113132334636 0.024786720026376666 -1.897211109175591 0.6157270137337977 -1.0553825689898921 0.4455379821788005 -0.15263019673562747 -0.41878333979277554 -0.37401117778340753 -2.97103928646518 0.4578185993183663 1.6667561908510002 0.9154597925186041 0.11077597970400277 -1.4466854439742116 2.1108337864341906 -0.9127655335158925 0.5931581272943461 0.5899861573242678 0.7949164490151922 -0.4790281435164459 -0.6964028316183104 -0.26511338893872405 -0.05322054988703737 0.485356399727319 0.1753273812228271 1.7899030334155304 0.4143456157363961 0.23538963662204623 -1.4170254550159338 -0.4739509861038548 -0.25034471526998175 0.027757886839558647 0.9157840086272421 -0.18867783438780408 2.7323570951347906 -1.7338082473044913 0.05083867991842212 -0.8878942241955097 0.2932119469471531 -0.14046862167242904 -1.5167138094472072 0.8790581139611183 0.7502533017798627 0.034290545751753845 0.4826138039851753 -0.6369604691912772 -0.4347892283027286 0.011848414698153788 -1.080119666725256 -0.8656744935653606 1.245183975459178 -1.7390988062794692 -0.3138496778021627 -0.09519175211250057 -0.30362722874320613 -0.6237694244223 0.15844140410076585 1.8572816199705044 0.10722502912795083 -0.5406867968685075 -0.3707415058932002 0.05415437455521641 -1.8280399494965678 -0.11976969856218082 0.45244113705653694 0.7393862771583718 0.5238869517023493 -0.29615354607398026 1.212250972176583 0.4805191262396757 0.2902695764893775 -1.0941751163770574 -0.3166742917351514 -0.2383939706660088 0.0772667922029637 -0.16437371042480078 0.0699003245355635 0.6605961063323462 0.16070448910332966 -0.28033354832258817 0.12898993160886818 -0.2733928553386969 0.3768586745345316 0.09897075953895859 -0.12427555685233435 -0.4579816072587919 -0.33733670518050934 -0.9579426442731631 -0.2587303682305157 0.9841442423691953 1.58027379358704 -0.03291834799457556 -1.6470517704435377 -0.11803368970768059 0.5629121839256112 0.7458266334670768