
     Program PWSCF v.5.4.0 starts on 22Sep2019 at 19:27:48 

     This program is part of the open-source Quantum ESPRESSO suite
     for quantum simulation of materials; please cite
         "P. Giannozzi et al., J. Phys.:Condens. Matter 21 395502 (2009);
          URL http://www.quantum-espresso.org", 
     in publications or presentations arising from this work. More details at
     http://www.quantum-espresso.org/quote

           HOST :    @host@
           ARCH :    
             CC :    cc
            CPP :    cpp
            F90 :    mpif90
            F77 :    gfortran
         DFLAGS :    -D__GFORTRAN -D__STD_F95 -D__FFTW3 -D__MPI -D__PARA
      BLAS LIBS :    -lopenblas
    LAPACK LIBS :    -lopenblas
       FFT LIBS :    -lfftw3
      MASS LIBS :    

     Parallel version (MPI), running on    28 processors
     R & G space division:  proc/nbgrp/npool/nimage =      28
     Waiting for input...
     Reading input from standard input
Warning: card &IONS ignored
Warning: card / ignored
Warning: card &CELL ignored
Warning: card / ignored

     Current dimensions of program PWSCF are:
     Max number of different atomic species (ntypx) = 10
     Max number of k-points (npk) =  40000
     Max angular momentum in pseudopotentials (lmaxx) =  3

     IMPORTANT: XC functional enforced from input :
     Exchange-correlation      = PBE ( 1  4  3  4 0 0)
     Any further DFT definition will be discarded
     Please, verify this is what you really want


     gamma-point specific algorithms are used

     Subspace diagonalization in iterative solution of the eigenvalue problem:
     a serial algorithm will be used


     Parallelization info
     --------------------
     sticks:   dense  smooth     PW     G-vecs:    dense   smooth      PW
     Min         445     445    110                37558    37558    4694
     Max         448     448    112                37564    37564    4708
     Sum       12517   12517   3125              1051747  1051747  131683
     Tot        6259    6259   1563



     bravais-lattice index     =            1
     lattice parameter (alat)  =      18.8973  a.u.
     unit-cell volume          =    6748.3346 (a.u.)^3
     number of atoms/cell      =            5
     number of atomic types    =            2
     number of electrons       =         8.00
     number of Kohn-Sham states=            4
     kinetic-energy cutoff     =     110.0000  Ry
     charge density cutoff     =     440.0000  Ry
     convergence threshold     =      1.0E-06
     mixing beta               =       0.5000
     number of iterations used =            8  plain     mixing
     Exchange-correlation      = PBE ( 1  4  3  4 0 0)

     celldm(1)=  18.897261  celldm(2)=   0.000000  celldm(3)=   0.000000
     celldm(4)=   0.000000  celldm(5)=   0.000000  celldm(6)=   0.000000

     crystal axes: (cart. coord. in units of alat)
               a(1) = (   1.000000   0.000000   0.000000 )  
               a(2) = (   0.000000   1.000000   0.000000 )  
               a(3) = (   0.000000   0.000000   1.000000 )  

     reciprocal axes: (cart. coord. in units 2 pi/alat)
               b(1) = (  1.000000  0.000000  0.000000 )  
               b(2) = (  0.000000  1.000000  0.000000 )  
               b(3) = (  0.000000  0.000000  1.000000 )  


     PseudoPot. # 1 for  H read from file:
     ../pseudo/H.tm.pbe.UPF
     MD5 check sum: 4b614d66af87240b7a5107bfa527a767
     Pseudo is Norm-conserving, Zval =  1.0
     Generated using "atomic" code by A. Dal Corso  v.5.2.0
     Using radial grid of  929 points,  0 beta functions with: 

     PseudoPot. # 2 for  C read from file:
     ../pseudo/C.tm.pbe.UPF
     MD5 check sum: a4f27fcb9b24331b00ace8e732a7e062
     Pseudo is Norm-conserving, Zval =  4.0
     Generated using "atomic" code by A. Dal Corso  v.5.2.0
     Using radial grid of 1073 points,  1 beta functions with: 
                l(1) =   1

     atomic species   valence    mass     pseudopotential
        H              1.00     1.00000      H( 1.00)
        C              4.00     1.00000      C( 1.00)

     No symmetry found



   Cartesian axes

     site n.     atom                  positions (alat units)
         1           H   tau(   1) = (   0.5398140   0.4068380   0.3424100  )
         2           H   tau(   2) = (   0.3970990   0.4730390   0.4356530  )
         3           H   tau(   3) = (   0.5603570   0.5524890   0.4432580  )
         4           H   tau(   4) = (   0.5358500   0.3974380   0.5231410  )
         5           C   tau(   5) = (   0.5095360   0.4562540   0.4362390  )

     number of k points=     1
                       cart. coord. in units 2pi/alat
        k(    1) = (   0.0000000   0.0000000   0.0000000), wk =   2.0000000

     Dense  grid:   525874 G-vectors     FFT dimensions: ( 128, 128, 128)

     Largest allocated arrays     est. size (Mb)     dimensions
        Kohn-Sham Wavefunctions         0.14 Mb     (    2354,    4)
        NL pseudopotentials             0.11 Mb     (    2354,    3)
        Each V/rho on FFT grid          1.25 Mb     (   81920)
        Each G-vector array             0.14 Mb     (   18782)
        G-vector shells                 0.02 Mb     (    2785)
     Largest temporary arrays     est. size (Mb)     dimensions
        Auxiliary wavefunctions         0.29 Mb     (    2354,   16)
        Each subspace H/S matrix        0.00 Mb     (      16,   16)
        Each <psi_i|beta_j> matrix      0.00 Mb     (       3,    4)
        Arrays for rho mixing          10.00 Mb     (   81920,    8)

     Initial potential from superposition of free atoms
     Check: negative starting charge=   -0.000383

     starting charge    7.99992, renormalised to    8.00000

     negative rho (up, down):  3.826E-04 0.000E+00
     Starting wfc are    8 randomized atomic wfcs

     total cpu time spent up to now is      126.8 secs

     per-process dynamical memory:   430.8 Mb

     Self-consistent Calculation

     iteration #  1     ecut=   110.00 Ry     beta=0.50
     Davidson diagonalization with overlap
     ethr =  1.00E-02,  avg # of iterations =  2.0

     negative rho (up, down):  1.808E-04 0.000E+00

     total cpu time spent up to now is      149.8 secs

     total energy              =     -16.02112464 Ry
     Harris-Foulkes estimate   =     -16.40311710 Ry
     estimated scf accuracy    <       0.67912311 Ry

     iteration #  2     ecut=   110.00 Ry     beta=0.50
     Davidson diagonalization with overlap
     ethr =  8.49E-03,  avg # of iterations =  2.0

     negative rho (up, down):  9.508E-05 0.000E+00

     total cpu time spent up to now is      170.7 secs

     total energy              =     -16.15209976 Ry
     Harris-Foulkes estimate   =     -16.17162318 Ry
     estimated scf accuracy    <       0.05064897 Ry

     iteration #  3     ecut=   110.00 Ry     beta=0.50
     Davidson diagonalization with overlap
     ethr =  6.33E-04,  avg # of iterations =  1.0

     negative rho (up, down):  5.295E-06 0.000E+00

     total cpu time spent up to now is      183.3 secs

     total energy              =     -16.15048313 Ry
     Harris-Foulkes estimate   =     -16.15597443 Ry
     estimated scf accuracy    <       0.01154406 Ry

     iteration #  4     ecut=   110.00 Ry     beta=0.50
     Davidson diagonalization with overlap
     ethr =  1.44E-04,  avg # of iterations =  3.0

     negative rho (up, down):  5.098E-06 0.000E+00

     total cpu time spent up to now is      199.4 secs

     total energy              =     -16.15238574 Ry
     Harris-Foulkes estimate   =     -16.15479782 Ry
     estimated scf accuracy    <       0.00553363 Ry

     iteration #  5     ecut=   110.00 Ry     beta=0.50
     Davidson diagonalization with overlap
     ethr =  6.92E-05,  avg # of iterations =  2.0

     negative rho (up, down):  2.785E-06 0.000E+00

     total cpu time spent up to now is      213.9 secs

     total energy              =     -16.15282703 Ry
     Harris-Foulkes estimate   =     -16.15292010 Ry
     estimated scf accuracy    <       0.00024924 Ry

     iteration #  6     ecut=   110.00 Ry     beta=0.50
     Davidson diagonalization with overlap
     ethr =  3.12E-06,  avg # of iterations =  3.0

     negative rho (up, down):  3.469E-07 0.000E+00

     total cpu time spent up to now is      227.2 secs

     total energy              =     -16.15294523 Ry
     Harris-Foulkes estimate   =     -16.15294149 Ry
     estimated scf accuracy    <       0.00000543 Ry

     iteration #  7     ecut=   110.00 Ry     beta=0.50
     Davidson diagonalization with overlap
     ethr =  6.79E-08,  avg # of iterations =  3.0

     total cpu time spent up to now is      239.9 secs

     total energy              =     -16.15294201 Ry
     Harris-Foulkes estimate   =     -16.15294812 Ry
     estimated scf accuracy    <       0.00001423 Ry

     iteration #  8     ecut=   110.00 Ry     beta=0.50
     Davidson diagonalization with overlap
     ethr =  6.79E-08,  avg # of iterations =  2.0

     total cpu time spent up to now is      252.2 secs

     total energy              =     -16.15294304 Ry
     Harris-Foulkes estimate   =     -16.15294315 Ry
     estimated scf accuracy    <       0.00000117 Ry

     iteration #  9     ecut=   110.00 Ry     beta=0.50
     Davidson diagonalization with overlap
     ethr =  1.46E-08,  avg # of iterations =  1.0

     total cpu time spent up to now is      259.9 secs

     End of self-consistent calculation

          k = 0.0000 0.0000 0.0000 ( 65842 PWs)   bands (ev):

   -16.7804  -9.3785  -9.2094  -9.0839

     highest occupied level (ev):    -9.0839

!    total energy              =     -16.15294247 Ry
     Harris-Foulkes estimate   =     -16.15294305 Ry
     estimated scf accuracy    <       0.00000079 Ry

     The total energy is the sum of the following terms:

     one-electron contribution =     -40.02454506 Ry
     hartree contribution      =      20.83484686 Ry
     xc contribution           =      -6.32430653 Ry
     ewald contribution        =       9.36106226 Ry

     convergence has been achieved in   9 iterations

     Forces acting on atoms (Ry/au):

     atom    1 type  1   force =    -0.00302254   -0.00041524    0.01006538
     atom    2 type  1   force =     0.04425333   -0.00608679   -0.00104161
     atom    3 type  1   force =     0.00107757    0.00895293   -0.00077675
     atom    4 type  1   force =     0.00465141   -0.01537917    0.01091527
     atom    5 type  2   force =    -0.04695977    0.01292827   -0.01916230

     Total force =     0.072841     Total SCF correction =     0.000639


     entering subroutine stress ...

          total   stress  (Ry/bohr**3)                   (kbar)     P=   -0.74
  -0.00001573   0.00000203   0.00000188         -2.31      0.30      0.28
   0.00000203   0.00000268  -0.00000345          0.30      0.39     -0.51
   0.00000188  -0.00000345  -0.00000202          0.28     -0.51     -0.30


     init_run     :    103.24s CPU    103.31s WALL (       1 calls)
     electrons    :    133.31s CPU    133.41s WALL (       1 calls)
     forces       :     10.94s CPU     10.94s WALL (       1 calls)
     stress       :      1.13s CPU      1.13s WALL (       1 calls)

     Called by init_run:
     wfcinit      :      5.11s CPU      5.12s WALL (       1 calls)
     potinit      :     47.25s CPU     47.29s WALL (       1 calls)

     Called by electrons:
     c_bands      :     38.07s CPU     38.08s WALL (       9 calls)
     sum_band     :     11.43s CPU     11.45s WALL (       9 calls)
     v_of_rho     :     82.30s CPU     82.40s WALL (      10 calls)
     mix_rho      :      6.70s CPU      6.70s WALL (       9 calls)

     Called by c_bands:
     init_us_2    :      0.04s CPU      0.05s WALL (      19 calls)
     regterg      :     37.05s CPU     37.06s WALL (       9 calls)

     Called by sum_band:

     Called by *egterg:
     h_psi        :     39.22s CPU     39.24s WALL (      29 calls)
     g_psi        :      0.01s CPU      0.01s WALL (      19 calls)
     rdiaghg      :      0.92s CPU      0.92s WALL (      28 calls)

     Called by h_psi:
     add_vuspsi   :      0.00s CPU      0.00s WALL (      29 calls)

     General routines
     calbec       :      4.28s CPU      4.28s WALL (      34 calls)
     fft          :    115.18s CPU    115.29s WALL (     117 calls)
     fftw         :     39.00s CPU     39.03s WALL (     130 calls)

     Parallel routines
     fft_scatter  :    152.32s CPU    152.46s WALL (     247 calls)

     PWSCF        :  4m32.04s CPU     4m32.28s WALL


   This run was terminated on:  19:32:20  22Sep2019            

=------------------------------------------------------------------------------=
   JOB DONE.
=------------------------------------------------------------------------------=
