
     Program PWSCF v.5.4.0 starts on 22Sep2019 at 18:11:13 

     This program is part of the open-source Quantum ESPRESSO suite
     for quantum simulation of materials; please cite
         "P. Giannozzi et al., J. Phys.:Condens. Matter 21 395502 (2009);
          URL http://www.quantum-espresso.org", 
     in publications or presentations arising from this work. More details at
     http://www.quantum-espresso.org/quote

           HOST :    @host@
           ARCH :    
             CC :    cc
            CPP :    cpp
            F90 :    mpif90
            F77 :    gfortran
         DFLAGS :    -D__GFORTRAN -D__STD_F95 -D__FFTW3 -D__MPI -D__PARA
      BLAS LIBS :    -lopenblas
    LAPACK LIBS :    -lopenblas
       FFT LIBS :    -lfftw3
      MASS LIBS :    

     Parallel version (MPI), running on    28 processors
     R & G space division:  proc/nbgrp/npool/nimage =      28
     Waiting for input...
     Reading input from standard input
Warning: card &IONS ignored
Warning: card / ignored
Warning: card &CELL ignored
Warning: card / ignored

     Current dimensions of program PWSCF are:
     Max number of different atomic species (ntypx) = 10
     Max number of k-points (npk) =  40000
     Max angular momentum in pseudopotentials (lmaxx) =  3

     IMPORTANT: XC functional enforced from input :
     Exchange-correlation      = PBE ( 1  4  3  4 0 0)
     Any further DFT definition will be discarded
     Please, verify this is what you really want


     gamma-point specific algorithms are used

     Subspace diagonalization in iterative solution of the eigenvalue problem:
     a serial algorithm will be used


     Parallelization info
     --------------------
     sticks:   dense  smooth     PW     G-vecs:    dense   smooth      PW
     Min         445     445    110                37558    37558    4694
     Max         448     448    112                37564    37564    4708
     Sum       12517   12517   3125              1051747  1051747  131683
     Tot        6259    6259   1563



     bravais-lattice index     =            1
     lattice parameter (alat)  =      18.8973  a.u.
     unit-cell volume          =    6748.3346 (a.u.)^3
     number of atoms/cell      =            5
     number of atomic types    =            2
     number of electrons       =         8.00
     number of Kohn-Sham states=            4
     kinetic-energy cutoff     =     110.0000  Ry
     charge density cutoff     =     440.0000  Ry
     convergence threshold     =      1.0E-06
     mixing beta               =       0.5000
     number of iterations used =            8  plain     mixing
     Exchange-correlation      = PBE ( 1  4  3  4 0 0)

     celldm(1)=  18.897261  celldm(2)=   0.000000  celldm(3)=   0.000000
     celldm(4)=   0.000000  celldm(5)=   0.000000  celldm(6)=   0.000000

     crystal axes: (cart. coord. in units of alat)
               a(1) = (   1.000000   0.000000   0.000000 )  
               a(2) = (   0.000000   1.000000   0.000000 )  
               a(3) = (   0.000000   0.000000   1.000000 )  

     reciprocal axes: (cart. coord. in units 2 pi/alat)
               b(1) = (  1.000000  0.000000  0.000000 )  
               b(2) = (  0.000000  1.000000  0.000000 )  
               b(3) = (  0.000000  0.000000  1.000000 )  


     PseudoPot. # 1 for  H read from file:
     ../pseudo/H.tm.pbe.UPF
     MD5 check sum: 4b614d66af87240b7a5107bfa527a767
     Pseudo is Norm-conserving, Zval =  1.0
     Generated using "atomic" code by A. Dal Corso  v.5.2.0
     Using radial grid of  929 points,  0 beta functions with: 

     PseudoPot. # 2 for  C read from file:
     ../pseudo/C.tm.pbe.UPF
     MD5 check sum: a4f27fcb9b24331b00ace8e732a7e062
     Pseudo is Norm-conserving, Zval =  4.0
     Generated using "atomic" code by A. Dal Corso  v.5.2.0
     Using radial grid of 1073 points,  1 beta functions with: 
                l(1) =   1

     atomic species   valence    mass     pseudopotential
        H              1.00     1.00000      H( 1.00)
        C              4.00     1.00000      C( 1.00)

     No symmetry found



   Cartesian axes

     site n.     atom                  positions (alat units)
         1           H   tau(   1) = (   0.5278670   0.3815400   0.3527610  )
         2           H   tau(   2) = (   0.3855350   0.4590160   0.4338030  )
         3           H   tau(   3) = (   0.5398610   0.5453930   0.4339820  )
         4           H   tau(   4) = (   0.5158620   0.3934440   0.5297500  )
         5           C   tau(   5) = (   0.4918980   0.4468530   0.4363990  )

     number of k points=     1
                       cart. coord. in units 2pi/alat
        k(    1) = (   0.0000000   0.0000000   0.0000000), wk =   2.0000000

     Dense  grid:   525874 G-vectors     FFT dimensions: ( 128, 128, 128)

     Largest allocated arrays     est. size (Mb)     dimensions
        Kohn-Sham Wavefunctions         0.14 Mb     (    2354,    4)
        NL pseudopotentials             0.11 Mb     (    2354,    3)
        Each V/rho on FFT grid          1.25 Mb     (   81920)
        Each G-vector array             0.14 Mb     (   18782)
        G-vector shells                 0.02 Mb     (    2785)
     Largest temporary arrays     est. size (Mb)     dimensions
        Auxiliary wavefunctions         0.29 Mb     (    2354,   16)
        Each subspace H/S matrix        0.00 Mb     (      16,   16)
        Each <psi_i|beta_j> matrix      0.00 Mb     (       3,    4)
        Arrays for rho mixing          10.00 Mb     (   81920,    8)

     Initial potential from superposition of free atoms
     Check: negative starting charge=   -0.000381

     starting charge    7.99992, renormalised to    8.00000

     negative rho (up, down):  3.808E-04 0.000E+00
     Starting wfc are    8 randomized atomic wfcs

     total cpu time spent up to now is        2.9 secs

     per-process dynamical memory:   430.8 Mb

     Self-consistent Calculation

     iteration #  1     ecut=   110.00 Ry     beta=0.50
     Davidson diagonalization with overlap
     ethr =  1.00E-02,  avg # of iterations =  2.0

     negative rho (up, down):  1.797E-04 0.000E+00

     total cpu time spent up to now is        3.3 secs

     total energy              =     -16.01927727 Ry
     Harris-Foulkes estimate   =     -16.40859955 Ry
     estimated scf accuracy    <       0.69174665 Ry

     iteration #  2     ecut=   110.00 Ry     beta=0.50
     Davidson diagonalization with overlap
     ethr =  8.65E-03,  avg # of iterations =  2.0

     negative rho (up, down):  9.418E-05 0.000E+00

     total cpu time spent up to now is        3.8 secs

     total energy              =     -16.15217697 Ry
     Harris-Foulkes estimate   =     -16.17140373 Ry
     estimated scf accuracy    <       0.05005852 Ry

     iteration #  3     ecut=   110.00 Ry     beta=0.50
     Davidson diagonalization with overlap
     ethr =  6.26E-04,  avg # of iterations =  1.0

     negative rho (up, down):  5.030E-06 0.000E+00

     total cpu time spent up to now is        4.3 secs

     total energy              =     -16.15044520 Ry
     Harris-Foulkes estimate   =     -16.15591115 Ry
     estimated scf accuracy    <       0.01148663 Ry

     iteration #  4     ecut=   110.00 Ry     beta=0.50
     Davidson diagonalization with overlap
     ethr =  1.44E-04,  avg # of iterations =  3.0

     negative rho (up, down):  4.751E-06 0.000E+00

     total cpu time spent up to now is        4.9 secs

     total energy              =     -16.15234036 Ry
     Harris-Foulkes estimate   =     -16.15461302 Ry
     estimated scf accuracy    <       0.00527388 Ry

     iteration #  5     ecut=   110.00 Ry     beta=0.50
     Davidson diagonalization with overlap
     ethr =  6.59E-05,  avg # of iterations =  2.0

     negative rho (up, down):  2.826E-06 0.000E+00

     total cpu time spent up to now is        5.3 secs

     total energy              =     -16.15271070 Ry
     Harris-Foulkes estimate   =     -16.15282695 Ry
     estimated scf accuracy    <       0.00027713 Ry

     iteration #  6     ecut=   110.00 Ry     beta=0.50
     Davidson diagonalization with overlap
     ethr =  3.46E-06,  avg # of iterations =  3.0

     negative rho (up, down):  6.272E-08 0.000E+00

     total cpu time spent up to now is        5.9 secs

     total energy              =     -16.15283971 Ry
     Harris-Foulkes estimate   =     -16.15283829 Ry
     estimated scf accuracy    <       0.00000729 Ry

     iteration #  7     ecut=   110.00 Ry     beta=0.50
     Davidson diagonalization with overlap
     ethr =  9.11E-08,  avg # of iterations =  1.0

     total cpu time spent up to now is        6.3 secs

     total energy              =     -16.15283737 Ry
     Harris-Foulkes estimate   =     -16.15284000 Ry
     estimated scf accuracy    <       0.00000676 Ry

     iteration #  8     ecut=   110.00 Ry     beta=0.50
     Davidson diagonalization with overlap
     ethr =  8.45E-08,  avg # of iterations =  1.0

     total cpu time spent up to now is        6.6 secs

     End of self-consistent calculation

          k = 0.0000 0.0000 0.0000 ( 65842 PWs)   bands (ev):

   -16.8238  -9.3838  -9.3346  -9.0131

     highest occupied level (ev):    -9.0131

!    total energy              =     -16.15283728 Ry
     Harris-Foulkes estimate   =     -16.15283788 Ry
     estimated scf accuracy    <       0.00000088 Ry

     The total energy is the sum of the following terms:

     one-electron contribution =     -40.19087371 Ry
     hartree contribution      =      20.91980166 Ry
     xc contribution           =      -6.33908117 Ry
     ewald contribution        =       9.45731594 Ry

     convergence has been achieved in   8 iterations

     Forces acting on atoms (Ry/au):

     atom    1 type  1   force =    -0.01225682    0.02311313    0.01505260
     atom    2 type  1   force =    -0.03421468    0.00278606   -0.00942505
     atom    3 type  1   force =     0.00398909   -0.00415115   -0.00045746
     atom    4 type  1   force =     0.00426086    0.00891496   -0.00084824
     atom    5 type  2   force =     0.03822155   -0.03066301   -0.00432185

     Total force =     0.068773     Total SCF correction =     0.000694


     entering subroutine stress ...

          total   stress  (Ry/bohr**3)                   (kbar)     P=   -0.33
   0.00000770   0.00000153   0.00000420          1.13      0.22      0.62
   0.00000153  -0.00000867  -0.00000309          0.22     -1.28     -0.45
   0.00000420  -0.00000309  -0.00000574          0.62     -0.45     -0.85


     init_run     :      2.44s CPU      2.50s WALL (       1 calls)
     electrons    :      3.71s CPU      3.76s WALL (       1 calls)
     forces       :      1.06s CPU      1.06s WALL (       1 calls)
     stress       :      1.12s CPU      1.12s WALL (       1 calls)

     Called by init_run:
     wfcinit      :      0.19s CPU      0.19s WALL (       1 calls)
     potinit      :      0.93s CPU      0.95s WALL (       1 calls)

     Called by electrons:
     c_bands      :      1.48s CPU      1.51s WALL (       8 calls)
     sum_band     :      0.43s CPU      0.44s WALL (       8 calls)
     v_of_rho     :      1.76s CPU      1.79s WALL (       9 calls)
     mix_rho      :      0.21s CPU      0.21s WALL (       8 calls)

     Called by c_bands:
     init_us_2    :      0.04s CPU      0.04s WALL (      17 calls)
     regterg      :      1.45s CPU      1.48s WALL (       8 calls)

     Called by sum_band:

     Called by *egterg:
     h_psi        :      1.59s CPU      1.61s WALL (      24 calls)
     g_psi        :      0.01s CPU      0.01s WALL (      15 calls)
     rdiaghg      :      0.00s CPU      0.00s WALL (      23 calls)

     Called by h_psi:
     add_vuspsi   :      0.00s CPU      0.00s WALL (      24 calls)

     General routines
     calbec       :      0.57s CPU      0.57s WALL (      29 calls)
     fft          :      1.69s CPU      1.73s WALL (     106 calls)
     fftw         :      1.04s CPU      1.06s WALL (     110 calls)

     Parallel routines
     fft_scatter  :      1.10s CPU      1.14s WALL (     216 calls)

     PWSCF        :     8.70s CPU         8.86s WALL


   This run was terminated on:  18:11:22  22Sep2019            

=------------------------------------------------------------------------------=
   JOB DONE.
=------------------------------------------------------------------------------=
