1.496676731109619141e+01 0.000000000000000000e+00 0.000000000000000000e+00 0.000000000000000000e+00 1.496676731109619141e+01 0.000000000000000000e+00 0.000000000000000000e+00 0.000000000000000000e+00 1.544676780700683594e+01
1.496676731109619141e+01 0.000000000000000000e+00 0.000000000000000000e+00 0.000000000000000000e+00 1.496676731109619141e+01 0.000000000000000000e+00 0.000000000000000000e+00 0.000000000000000000e+00 1.544676780700683594e+01
1.496676731109619141e+01 0.000000000000000000e+00 0.000000000000000000e+00 0.000000000000000000e+00 1.496676731109619141e+01 0.000000000000000000e+00 0.000000000000000000e+00 0.000000000000000000e+00 2.168676757812500000e+01
1.496676731109619141e+01 0.000000000000000000e+00 0.000000000000000000e+00 0.000000000000000000e+00 1.496676731109619141e+01 0.000000000000000000e+00 0.000000000000000000e+00 0.000000000000000000e+00 1.544676780700683594e+01
1.527857494354248047e+01 0.000000000000000000e+00 0.000000000000000000e+00 0.000000000000000000e+00 1.527857494354248047e+01 0.000000000000000000e+00 0.000000000000000000e+00 0.000000000000000000e+00 2.213857460021972656e+01
1.496676731109619141e+01 0.000000000000000000e+00 0.000000000000000000e+00 0.000000000000000000e+00 1.496676731109619141e+01 0.000000000000000000e+00 0.000000000000000000e+00 0.000000000000000000e+00 1.544676780700683594e+01
1.496676731109619141e+01 0.000000000000000000e+00 0.000000000000000000e+00 0.000000000000000000e+00 1.496676731109619141e+01 0.000000000000000000e+00 0.000000000000000000e+00 0.000000000000000000e+00 1.544676780700683594e+01
1.590219116210937500e+01 0.000000000000000000e+00 0.000000000000000000e+00 0.000000000000000000e+00 1.590219116210937500e+01 0.000000000000000000e+00 0.000000000000000000e+00 0.000000000000000000e+00 2.304219055175781250e+01
1.496676731109619141e+01 0.000000000000000000e+00 0.000000000000000000e+00 0.000000000000000000e+00 1.496676731109619141e+01 0.000000000000000000e+00 0.000000000000000000e+00 0.000000000000000000e+00 1.544676780700683594e+01
1.496676731109619141e+01 0.000000000000000000e+00 0.000000000000000000e+00 0.000000000000000000e+00 1.496676731109619141e+01 0.000000000000000000e+00 0.000000000000000000e+00 0.000000000000000000e+00 2.072676849365234375e+01
1.496676731109619141e+01 0.000000000000000000e+00 0.000000000000000000e+00 0.000000000000000000e+00 1.496676731109619141e+01 0.000000000000000000e+00 0.000000000000000000e+00 0.000000000000000000e+00 1.544676780700683594e+01
1.496676731109619141e+01 0.000000000000000000e+00 0.000000000000000000e+00 0.000000000000000000e+00 1.496676731109619141e+01 0.000000000000000000e+00 0.000000000000000000e+00 0.000000000000000000e+00 1.544676780700683594e+01
1.496676731109619141e+01 0.000000000000000000e+00 0.000000000000000000e+00 0.000000000000000000e+00 1.496676731109619141e+01 0.000000000000000000e+00 0.000000000000000000e+00 0.000000000000000000e+00 2.168676757812500000e+01
1.559038257598876953e+01 0.000000000000000000e+00 0.000000000000000000e+00 0.000000000000000000e+00 1.559038257598876953e+01 0.000000000000000000e+00 0.000000000000000000e+00 0.000000000000000000e+00 2.059038352966308594e+01
1.496676731109619141e+01 0.000000000000000000e+00 0.000000000000000000e+00 0.000000000000000000e+00 1.496676731109619141e+01 0.000000000000000000e+00 0.000000000000000000e+00 0.000000000000000000e+00 1.688676834106445312e+01
1.496676731109619141e+01 0.000000000000000000e+00 0.000000000000000000e+00 0.000000000000000000e+00 1.496676731109619141e+01 0.000000000000000000e+00 0.000000000000000000e+00 0.000000000000000000e+00 1.544676780700683594e+01
1.496676731109619141e+01 0.000000000000000000e+00 0.000000000000000000e+00 0.000000000000000000e+00 1.496676731109619141e+01 0.000000000000000000e+00 0.000000000000000000e+00 0.000000000000000000e+00 1.880676841735839844e+01
1.496676731109619141e+01 0.000000000000000000e+00 0.000000000000000000e+00 0.000000000000000000e+00 1.496676731109619141e+01 0.000000000000000000e+00 0.000000000000000000e+00 0.000000000000000000e+00 1.544676780700683594e+01
1.496676731109619141e+01 0.000000000000000000e+00 0.000000000000000000e+00 0.000000000000000000e+00 1.496676731109619141e+01 0.000000000000000000e+00 0.000000000000000000e+00 0.000000000000000000e+00 1.976676750183105469e+01
1.496676731109619141e+01 0.000000000000000000e+00 0.000000000000000000e+00 0.000000000000000000e+00 1.496676731109619141e+01 0.000000000000000000e+00 0.000000000000000000e+00 0.000000000000000000e+00 1.976676750183105469e+01
1.621399879455566406e+01 0.000000000000000000e+00 0.000000000000000000e+00 0.000000000000000000e+00 1.621399879455566406e+01 0.000000000000000000e+00 0.000000000000000000e+00 0.000000000000000000e+00 2.245399856567382812e+01
1.496676731109619141e+01 0.000000000000000000e+00 0.000000000000000000e+00 0.000000000000000000e+00 1.496676731109619141e+01 0.000000000000000000e+00 0.000000000000000000e+00 0.000000000000000000e+00 1.544676780700683594e+01
1.496676731109619141e+01 0.000000000000000000e+00 0.000000000000000000e+00 0.000000000000000000e+00 1.496676731109619141e+01 0.000000000000000000e+00 0.000000000000000000e+00 0.000000000000000000e+00 1.592676734924316406e+01
1.496676731109619141e+01 0.000000000000000000e+00 0.000000000000000000e+00 0.000000000000000000e+00 1.496676731109619141e+01 0.000000000000000000e+00 0.000000000000000000e+00 0.000000000000000000e+00 1.544676780700683594e+01
1.496676731109619141e+01 0.000000000000000000e+00 0.000000000000000000e+00 0.000000000000000000e+00 1.496676731109619141e+01 0.000000000000000000e+00 0.000000000000000000e+00 0.000000000000000000e+00 1.592676734924316406e+01
1.496676731109619141e+01 0.000000000000000000e+00 0.000000000000000000e+00 0.000000000000000000e+00 1.496676731109619141e+01 0.000000000000000000e+00 0.000000000000000000e+00 0.000000000000000000e+00 2.168676757812500000e+01
1.496676731109619141e+01 0.000000000000000000e+00 0.000000000000000000e+00 0.000000000000000000e+00 1.496676731109619141e+01 0.000000000000000000e+00 0.000000000000000000e+00 0.000000000000000000e+00 1.544676780700683594e+01
1.496676731109619141e+01 0.000000000000000000e+00 0.000000000000000000e+00 0.000000000000000000e+00 1.496676731109619141e+01 0.000000000000000000e+00 0.000000000000000000e+00 0.000000000000000000e+00 1.880676841735839844e+01
1.496676731109619141e+01 0.000000000000000000e+00 0.000000000000000000e+00 0.000000000000000000e+00 1.496676731109619141e+01 0.000000000000000000e+00 0.000000000000000000e+00 0.000000000000000000e+00 1.592676734924316406e+01
1.496676731109619141e+01 0.000000000000000000e+00 0.000000000000000000e+00 0.000000000000000000e+00 1.496676731109619141e+01 0.000000000000000000e+00 0.000000000000000000e+00 0.000000000000000000e+00 1.544676780700683594e+01
1.496676731109619141e+01 0.000000000000000000e+00 0.000000000000000000e+00 0.000000000000000000e+00 1.496676731109619141e+01 0.000000000000000000e+00 0.000000000000000000e+00 0.000000000000000000e+00 1.544676780700683594e+01
1.496676731109619141e+01 0.000000000000000000e+00 0.000000000000000000e+00 0.000000000000000000e+00 1.496676731109619141e+01 0.000000000000000000e+00 0.000000000000000000e+00 0.000000000000000000e+00 1.688676834106445312e+01
1.496676731109619141e+01 0.000000000000000000e+00 0.000000000000000000e+00 0.000000000000000000e+00 1.496676731109619141e+01 0.000000000000000000e+00 0.000000000000000000e+00 0.000000000000000000e+00 1.544676780700683594e+01
1.496676731109619141e+01 0.000000000000000000e+00 0.000000000000000000e+00 0.000000000000000000e+00 1.496676731109619141e+01 0.000000000000000000e+00 0.000000000000000000e+00 0.000000000000000000e+00 2.168676757812500000e+01
1.496676731109619141e+01 0.000000000000000000e+00 0.000000000000000000e+00 0.000000000000000000e+00 1.496676731109619141e+01 0.000000000000000000e+00 0.000000000000000000e+00 0.000000000000000000e+00 1.544676780700683594e+01
1.527857494354248047e+01 0.000000000000000000e+00 0.000000000000000000e+00 0.000000000000000000e+00 1.527857494354248047e+01 0.000000000000000000e+00 0.000000000000000000e+00 0.000000000000000000e+00 1.723857498168945312e+01
1.496676731109619141e+01 0.000000000000000000e+00 0.000000000000000000e+00 0.000000000000000000e+00 1.496676731109619141e+01 0.000000000000000000e+00 0.000000000000000000e+00 0.000000000000000000e+00 1.544676780700683594e+01
1.496676731109619141e+01 0.000000000000000000e+00 0.000000000000000000e+00 0.000000000000000000e+00 1.496676731109619141e+01 0.000000000000000000e+00 0.000000000000000000e+00 0.000000000000000000e+00 2.072676849365234375e+01
1.496676731109619141e+01 0.000000000000000000e+00 0.000000000000000000e+00 0.000000000000000000e+00 1.496676731109619141e+01 0.000000000000000000e+00 0.000000000000000000e+00 0.000000000000000000e+00 1.880676841735839844e+01
1.621399879455566406e+01 0.000000000000000000e+00 0.000000000000000000e+00 0.000000000000000000e+00 1.621399879455566406e+01 0.000000000000000000e+00 0.000000000000000000e+00 0.000000000000000000e+00 2.141399765014648438e+01
1.496676731109619141e+01 0.000000000000000000e+00 0.000000000000000000e+00 0.000000000000000000e+00 1.496676731109619141e+01 0.000000000000000000e+00 0.000000000000000000e+00 0.000000000000000000e+00 1.544676780700683594e+01
1.590219116210937500e+01 0.000000000000000000e+00 0.000000000000000000e+00 0.000000000000000000e+00 1.590219116210937500e+01 0.000000000000000000e+00 0.000000000000000000e+00 0.000000000000000000e+00 2.304219055175781250e+01
1.527857494354248047e+01 0.000000000000000000e+00 0.000000000000000000e+00 0.000000000000000000e+00 1.527857494354248047e+01 0.000000000000000000e+00 0.000000000000000000e+00 0.000000000000000000e+00 2.017857551574707031e+01
1.496676731109619141e+01 0.000000000000000000e+00 0.000000000000000000e+00 0.000000000000000000e+00 1.496676731109619141e+01 0.000000000000000000e+00 0.000000000000000000e+00 0.000000000000000000e+00 1.592676734924316406e+01
1.621399879455566406e+01 0.000000000000000000e+00 0.000000000000000000e+00 0.000000000000000000e+00 1.621399879455566406e+01 0.000000000000000000e+00 0.000000000000000000e+00 0.000000000000000000e+00 2.245399856567382812e+01
1.496676731109619141e+01 0.000000000000000000e+00 0.000000000000000000e+00 0.000000000000000000e+00 1.496676731109619141e+01 0.000000000000000000e+00 0.000000000000000000e+00 0.000000000000000000e+00 1.544676780700683594e+01
1.496676731109619141e+01 0.000000000000000000e+00 0.000000000000000000e+00 0.000000000000000000e+00 1.496676731109619141e+01 0.000000000000000000e+00 0.000000000000000000e+00 0.000000000000000000e+00 1.880676841735839844e+01
1.496676731109619141e+01 0.000000000000000000e+00 0.000000000000000000e+00 0.000000000000000000e+00 1.496676731109619141e+01 0.000000000000000000e+00 0.000000000000000000e+00 0.000000000000000000e+00 1.880676841735839844e+01
1.527857494354248047e+01 0.000000000000000000e+00 0.000000000000000000e+00 0.000000000000000000e+00 1.527857494354248047e+01 0.000000000000000000e+00 0.000000000000000000e+00 0.000000000000000000e+00 1.576857566833496094e+01
1.496676731109619141e+01 0.000000000000000000e+00 0.000000000000000000e+00 0.000000000000000000e+00 1.496676731109619141e+01 0.000000000000000000e+00 0.000000000000000000e+00 0.000000000000000000e+00 1.688676834106445312e+01
1.590219116210937500e+01 0.000000000000000000e+00 0.000000000000000000e+00 0.000000000000000000e+00 1.590219116210937500e+01 0.000000000000000000e+00 0.000000000000000000e+00 0.000000000000000000e+00 1.896219062805175781e+01
1.496676731109619141e+01 0.000000000000000000e+00 0.000000000000000000e+00 0.000000000000000000e+00 1.496676731109619141e+01 0.000000000000000000e+00 0.000000000000000000e+00 0.000000000000000000e+00 2.168676757812500000e+01
