-1.874776611328125000e+03
-1.869292358398437500e+03
-1.866930175781250000e+03
-1.871408569335937500e+03
-1.869747802734375000e+03
-1.874943969726562500e+03
-1.875052124023437500e+03
-1.870033081054687500e+03
-1.875238647460937500e+03
-1.866125122070312500e+03
-1.871016967773437500e+03
-1.870735473632812500e+03
-1.865813354492187500e+03
-1.873398681640625000e+03
-1.865465820312500000e+03
-1.874369995117187500e+03
-1.867332031250000000e+03
-1.871100952148437500e+03
-1.870402709960937500e+03
-1.866685546875000000e+03
-1.870987548828125000e+03
-1.869567626953125000e+03
-1.871800781250000000e+03
-1.870305053710937500e+03
-1.868129882812500000e+03
-1.869325317382812500e+03
-1.868580078125000000e+03
-1.864693725585937500e+03
-1.870292602539062500e+03
-1.871389648437500000e+03
-1.871813842773437500e+03
-1.863533935546875000e+03
-1.872960693359375000e+03
-1.867633789062500000e+03
-1.874748413085937500e+03
-1.873790893554687500e+03
-1.875253051757812500e+03
-1.870348876953125000e+03
-1.863611328125000000e+03
-1.870412597656250000e+03
-1.872088012695312500e+03
-1.872047241210937500e+03
-1.869520019531250000e+03
-1.869097167968750000e+03
-1.867578491210937500e+03
-1.870166381835937500e+03
-1.869568603515625000e+03
-1.864480590820312500e+03
-1.877098388671875000e+03
-1.866197143554687500e+03
-1.875021606445312500e+03
-1.862530395507812500e+03
