5.343179702758789062e-01 2.114879935979843140e-01 4.418430030345916748e-01 -4.997399821877479553e-02 -1.194226026535034180e+00 -2.095953941345214844e+00 -2.861250042915344238e-01 9.824090003967285156e-01 1.048640966415405273e+00 -6.944879889488220215e-01 -1.137879967689514160e+00 -1.791322946548461914e+00 -3.781479895114898682e-01 1.795960068702697754e-01 -4.983099922537803650e-02 -1.864660978317260742e+00 3.477250039577484131e-01 -2.928510010242462158e-01 1.508034944534301758e+00 -2.856900095939636230e-01 -1.419896960258483887e+00 9.732249975204467773e-01 6.454160213470458984e-01 -9.402430057525634766e-01 -2.619889974594116211e-01 1.310089975595474243e-01 -6.569150090217590332e-01 -1.883064985275268555e+00 -1.693467020988464355e+00 3.365905046463012695e+00 3.644469976425170898e-01 4.770019948482513428e-01 -1.128664016723632812e+00 -2.102790027856826782e-01 5.605850219726562500e-01 -2.195163965225219727e+00 -5.676959753036499023e-01 -3.826639950275421143e-01 1.108999997377395630e-01 2.034235954284667969e+00 -3.467514038085937500e+00 3.048189878463745117e-01 -1.058030009269714355e+00 1.545452952384948730e+00 -2.158112049102783203e+00 2.420531988143920898e+00 -1.604479998350143433e-01 2.588250041007995605e-01 -7.943440079689025879e-01 -3.916659951210021973e-01 -1.462807059288024902e+00 -2.936590015888214111e-01 8.556150197982788086e-01 5.779100060462951660e-01 1.048614978790283203e+00 -9.029309749603271484e-01 1.840801954269409180e+00 9.772799909114837646e-02 -1.208562016487121582e+00 -1.364712953567504883e+00 4.046939909458160400e-01 3.169659972190856934e-01 3.619299829006195068e-02 4.608950018882751465e-01 -1.067252039909362793e+00 -5.286840200424194336e-01 -1.701589971780776978e-01 -1.078405022621154785e+00 2.417471885681152344e+00 -1.071521997451782227e+00 3.405959904193878174e-01 -1.073048949241638184e+00 -2.180690020322799683e-01 -1.529214978218078613e+00 -1.710613012313842773e+00 1.067839026451110840e+00 -2.607256889343261719e+00 -9.165800362825393677e-02 8.526070117950439453e-01 1.689040064811706543e-01 1.110846996307373047e+00 1.109555959701538086e+00 -1.276973009109497070e+00 7.444189786911010742e-01 -5.680200085043907166e-02 -5.722529888153076172e-01 1.256654024124145508e+00 -2.476500034332275391e+00 -1.921637058258056641e+00 -6.595730185508728027e-01 1.244399975985288620e-02 4.842630028724670410e-01 4.066050052642822266e-01 -7.088459730148315430e-01 1.731880009174346924e-01 8.948680162429809570e-01 1.761430978775024414e+00 -2.400070905685424805e+00 -1.227017998695373535e+00 2.325366973876953125e+00 -6.785039901733398438e-01 1.427567005157470703e+00 6.528279781341552734e-01 -4.800220131874084473e-01 -9.479899704456329346e-02 -5.366969704627990723e-01 6.251779794692993164e-01 8.203589916229248047e-01 1.313434004783630371e+00 2.410710006952285767e-01 1.107072949409484863e+00 -1.832645058631896973e+00 -5.428640246391296387e-01 1.065541028976440430e+00 -1.990497946739196777e+00 -1.206030011177062988e+00 -1.782886028289794922e+00 -3.796150088310241699e-01 1.233425021171569824e+00 4.590710103511810303e-01 -2.094289958477020264e-01 9.306409955024719238e-01 6.820539832115173340e-01 2.767530083656311035e-01 -5.971239805221557617e-01 -5.089070200920104980e-01 8.709779977798461914e-01 -6.191949844360351562e-01 4.167000055313110352e-01 1.315079927444458008e-01 2.370429933071136475e-01 1.585479974746704102e-01 4.779889881610870361e-01 9.744489789009094238e-01 -4.399439990520477295e-01 1.566455960273742676e+00 -1.578408956527709961e+00 -2.265913009643554688e+00 -1.484855055809020996e+00 -1.300776004791259766e+00 7.402750253677368164e-01 1.604590058326721191e+00 2.002939939498901367e+00 1.732408046722412109e+00 -1.418153047561645508e+00 1.570616006851196289e+00 2.718993902206420898e+00 3.265999956056475639e-03 -2.364099957048892975e-02 -9.068490266799926758e-01 -5.271630287170410156e-01 -1.142763018608093262e+00 4.966399967670440674e-01 3.388629853725433350e-01 4.460749924182891846e-01 -4.111720025539398193e-01 -6.405899673700332642e-02 6.562000140547752380e-03 -9.018560051918029785e-01 -1.639845013618469238e+00 -1.362350940704345703e+00 -1.511165976524353027e+00 6.095849871635437012e-01 1.620012998580932617e+00 -1.783540010452270508e+00 -5.864790081977844238e-01 -3.092980086803436279e-01 -1.573670029640197754e+00 2.091497898101806641e+00 -1.980164051055908203e+00 1.241793990135192871e+00 -6.913139820098876953e-01 -1.284507989883422852e+00 1.335670948028564453e+00 4.021520018577575684e-01 -8.179649710655212402e-01 -1.972902059555053711e+00 1.051445960998535156e+00 1.552718043327331543e+00 1.153409004211425781e+00 -3.390659987926483154e-01 2.098987102508544922e+00 -1.082499980926513672e+00 -1.816823005676269531e+00 1.749449014663696289e+00 -2.029110044240951538e-01 5.458109974861145020e-01 1.466609001159667969e+00 -8.993340134620666504e-01 3.187946081161499023e+00 -1.968726038932800293e+00 8.232290148735046387e-01 7.303100079298019409e-02 1.171159967780113220e-01 4.190579950809478760e-01 9.368379712104797363e-01 -4.452500045299530029e-01 -6.195440292358398438e-01 -1.182399969547986984e-02 -4.378240108489990234e-01 -5.060299858450889587e-02 -7.558670043945312500e-01 1.136870026588439941e+00 -1.258262038230895996e+00 -1.372347950935363770e+00 1.598227024078369141e+00 -1.981790065765380859e-01 1.352885007858276367e+00 5.352920293807983398e-01 2.729809880256652832e-01 7.488300204277038574e-01 -1.328166961669921875e+00 -8.518009781837463379e-01 -2.363907098770141602e+00 2.199240028858184814e-01 6.199650168418884277e-01 -5.290269851684570312e-01 1.584897994995117188e+00 3.940089941024780273e-01 7.974280118942260742e-01 -2.008553981781005859e+00 -6.031360030174255371e-01 1.663040071725845337e-01 -1.302785992622375488e+00 2.388561964035034180e+00 -1.371150016784667969e-01 9.618750214576721191e-01 -9.547979831695556641e-01 4.188509881496429443e-01 -4.132200032472610474e-02 -4.554150104522705078e-01 -5.293139815330505371e-01 -6.170099973678588867e-01 7.892810106277465820e-01 -1.634930014610290527e+00 -1.702620983123779297e+00 5.470250248908996582e-01 -2.503489851951599121e-01 1.861490011215209961e-01 8.154460191726684570e-01 5.991410017013549805e-01 -6.708350181579589844e-01 3.804972887039184570e+00 -2.050510048866271973e-01 -2.002239972352981567e-01 2.023669928312301636e-01 -5.600990056991577148e-01 -3.270999994128942490e-03 -7.411180138587951660e-01 -1.636916041374206543e+00 -8.100010156631469727e-01 -1.992341995239257812e+00 -2.241769075393676758e+00 -1.903853058815002441e+00 6.907269954681396484e-01 -2.161100059747695923e-01 -1.877219974994659424e-01 -7.839199900627136230e-02 -1.206652045249938965e+00 -8.730480074882507324e-01 2.184449911117553711e+00 -9.899340271949768066e-01 1.029006004333496094e+00 -2.386199980974197388e-01 -3.703469932079315186e-01 -2.685900032520294189e-02 -2.337852001190185547e+00 1.497037053108215332e+00 3.411699831485748291e-02 2.259964942932128906e+00 5.271610021591186523e-01 -8.370680212974548340e-01 1.493824958801269531e+00 4.413900077342987061e-01 2.999739944934844971e-01 -1.858009994029998779e-01 -2.098658084869384766e+00 -7.855070233345031738e-01 3.437731981277465820e+00 1.523848056793212891e+00 1.175505042076110840e+00 1.681399941444396973e+00 1.889282941818237305e+00 -3.877210021018981934e-01 -5.351459980010986328e-01 -4.252960085868835449e-01 -1.389520049095153809e+00 -9.112480282783508301e-01 1.929806947708129883e+00 -4.650140106678009033e-01 1.112396955490112305e+00 1.205500006675720215e+00 -7.629100233316421509e-02 1.814087033271789551e+00 2.457900047302246094e-01 2.654649913311004639e-01 -3.746640086174011230e-01 -4.299899935722351074e-01 -1.154904961585998535e+00 1.458222031593322754e+00 2.448100000619888306e-01 4.790030121803283691e-01 -8.837399631738662720e-02 -8.435530066490173340e-01 4.209229946136474609e-01 -1.436853051185607910e+00 1.373391032218933105e+00 -1.446653008460998535e+00 -8.238599896430969238e-01 2.097740888595581055e+00 2.406509965658187866e-01 2.834410071372985840e-01 3.116169869899749756e-01 -4.874449968338012695e-01 -8.185610175132751465e-01 -1.742741942405700684e+00 1.155729964375495911e-01 4.797030091285705566e-01 -1.037886977195739746e+00 -1.087844014167785645e+00 -6.301280260086059570e-01 -1.925150007009506226e-01 -7.165189981460571289e-01 6.389219760894775391e-01 1.846130013465881348e+00 -1.447088956832885742e+00 -1.122532963752746582e+00 -4.196519851684570312e-01 -4.611870050430297852e-01 -1.042026042938232422e+00 -1.423277020454406738e+00 -2.241050004959106445e-01 -1.619320988655090332e+00 2.129040062427520752e-01 6.018459796905517578e-01 -1.174509972333908081e-01 1.269804954528808594e+00 -6.556429862976074219e-01 -1.370110034942626953e+00 -2.154525995254516602e+00 8.128200173377990723e-01 -6.453890204429626465e-01 -1.898671030998229980e+00 -3.875190019607543945e-01 -1.372776985168457031e+00 8.490020036697387695e-01 6.019679903984069824e-01 -7.973930239677429199e-01 1.067257046699523926e+00 -2.763926029205322266e+00 -1.503841996192932129e+00 -2.065284013748168945e+00 -1.246562957763671875e+00 -7.966340184211730957e-01 4.403620064258575439e-01 1.770820975303649902e+00 -2.244330048561096191e-01 -1.134919047355651855e+00 1.416506052017211914e+00 1.279149055480957031e+00 -6.288819909095764160e-01 -3.139309883117675781e-01 3.118090033531188965e-01 -2.773529887199401855e-01 -6.399430036544799805e-01 3.235040009021759033e-01 -9.211469888687133789e-01 -1.184659957885742188e+00 -9.627100229263305664e-01 -5.606210231781005859e-01 2.427929937839508057e-01 -1.811007022857666016e+00 3.309000050649046898e-03 -1.975538015365600586e+00 2.233403921127319336e+00 -4.929099977016448975e-02 3.404987096786499023e+00 2.007769107818603516e+00 -1.755319982767105103e-01 -2.861990034580230713e-01 1.504109948873519897e-01 1.058290004730224609e+00 -4.528999924659729004e-01 -9.551709890365600586e-01 -6.686419844627380371e-01 -7.140949964523315430e-01 4.781369864940643311e-01 -6.478070020675659180e-01 -5.762270092964172363e-01 9.494990110397338867e-01 -9.206800162792205811e-02 -5.652340054512023926e-01 -5.776020288467407227e-01 1.652192950248718262e+00 1.207406044006347656e+00 1.124881029129028320e+00 5.563000217080116272e-03 3.638699948787689209e-01 -6.266120076179504395e-01 8.232399821281433105e-01 1.585049033164978027e+00 9.377440214157104492e-01 8.122469782829284668e-01 -2.045000046491622925e-01 -4.074800014495849609e-01 -8.224779963493347168e-01 -3.202799856662750244e-01 7.254120111465454102e-01 7.886599749326705933e-02 5.609999876469373703e-03 -1.564000034704804420e-03 -6.259419918060302734e-01 -4.149509966373443604e-01 -6.898599863052368164e-02 -7.079510092735290527e-01 -3.780309855937957764e-01 1.105790972709655762e+00 -1.250205039978027344e+00 1.139229983091354370e-01 1.166620030999183655e-01 7.421010136604309082e-01 -7.881999760866165161e-02 -3.805899992585182190e-02 2.561947107315063477e+00 -1.573030054569244385e-01 6.523000076413154602e-03 -3.923630118370056152e-01 5.542089939117431641e-01 -1.649390012025833130e-01 -2.575710117816925049e-01 -3.881999850273132324e-02 -1.321029961109161377e-01 7.904600352048873901e-02 -4.208639860153198242e-01 -3.547419905662536621e-01 3.646720051765441895e-01 -3.349269926548004150e-01 -1.539269983768463135e-01 1.473730057477951050e-01 5.750110149383544922e-01 2.259580045938491821e-01 2.896600030362606049e-02 -3.488900139927864075e-02 1.483656048774719238e+00 5.941399931907653809e-02 3.286849856376647949e-01 5.512049794197082520e-01 2.707400023937225342e-01 6.614000070840120316e-03 -2.695487976074218750e+00 -4.629989862442016602e-01 -9.507309794425964355e-01 9.662479758262634277e-01 5.537639856338500977e-01 -1.058822989463806152e+00 4.477689862251281738e-01 3.992620110511779785e-01 3.726580142974853516e-01 -2.470899969339370728e-01 -2.953000068664550781e-01 1.589643001556396484e+00 1.253607034683227539e+00 1.658552050590515137e+00 5.425630211830139160e-01 2.185720056295394897e-01 -1.256353974342346191e+00 -6.764370203018188477e-01 -2.412209957838058472e-01 4.632650017738342285e-01 -6.774000078439712524e-02 -3.254680037498474121e-01 -1.266450047492980957e+00 1.631261944770812988e+00 -1.485785961151123047e+00 -9.201530218124389648e-01 -1.177535057067871094e+00 1.441189050674438477e+00 -1.194617033004760742e+00 9.636390209197998047e-01 -3.381449878215789795e-01 1.974115967750549316e+00 -8.592860102653503418e-01 1.142413020133972168e+00 -3.739340007305145264e-01 3.255139887332916260e-01 -1.724279969930648804e-01 -1.464926958084106445e+00 3.531169891357421875e-01 -5.837709903717041016e-01 2.271279990673065186e-01 6.382550001144409180e-01 3.517430126667022705e-01 -4.368160068988800049e-01 1.700464010238647461e+00 3.595440089702606201e-01 8.419470191001892090e-01 -8.199989795684814453e-01 -1.712680011987686157e-01 4.935109913349151611e-01 1.510310024023056030e-01 -6.738809943199157715e-01 -1.493130028247833252e-01 2.167569994926452637e-01 6.041389703750610352e-01 -2.729290127754211426e-01 2.446909993886947632e-01 1.127210035920143127e-01 -3.313120007514953613e-01 6.039130091667175293e-01 -4.920000135898590088e-01 -4.220829904079437256e-01 1.342697024345397949e+00 -9.592159986495971680e-01 -6.501299738883972168e-01 -2.316409945487976074e-01 6.425920128822326660e-01 -4.011879861354827881e-01 -4.330070018768310547e-01 -3.225960135459899902e-01 -1.201919987797737122e-01 4.598610103130340576e-01 5.590069890022277832e-01 9.035419821739196777e-01 1.502960026264190674e-01 -1.020038962364196777e+00 1.654523015022277832e+00 -7.010080218315124512e-01 7.447760105133056641e-01 3.419860005378723145e-01 1.751355051994323730e+00 1.574252963066101074e+00 -1.065509989857673645e-01 9.246670007705688477e-01 6.590319871902465820e-01 -6.263470053672790527e-01 1.297020018100738525e-01 -6.378669738769531250e-01 8.766589760780334473e-01 1.769461035728454590e+00 -5.800859928131103516e-01 -7.386299967765808105e-02 -8.248600363731384277e-02 1.690209954977035522e-01 -1.063158988952636719e+00 1.383039951324462891e+00 -3.506189882755279541e-01 5.952389836311340332e-01 -4.158670008182525635e-01 -2.065465927124023438e+00 -1.638813018798828125e+00 5.723770260810852051e-01 -5.758429765701293945e-01 8.301600068807601929e-02 -2.748990058898925781e-01 -1.975979954004287720e-01 1.485316038131713867e+00 6.376199722290039062e-01 1.229784011840820312e+00 1.314170062541961670e-01 -2.068170011043548584e-01 -3.429180085659027100e-01 -9.922940135002136230e-01 3.765470087528228760e-01 1.745709925889968872e-01 1.398620009422302246e-01 3.987739980220794678e-01 -1.816560029983520508e-01 7.036060094833374023e-01 1.238772034645080566e+00 -5.387269854545593262e-01 -2.159720063209533691e-01 1.662089973688125610e-01 8.230700343847274780e-02 1.765974998474121094e+00 -3.432469964027404785e-01 -4.538620114326477051e-01 -5.009000189602375031e-03 3.884400054812431335e-02 -1.229230016469955444e-01 -2.099320888519287109e+00 1.042711019515991211e+00 -2.052705049514770508e+00 -1.310590058565139771e-01 8.883599936962127686e-02 -7.197499871253967285e-01 -1.045032024383544922e+00 -3.641499951481819153e-02 -4.582119882106781006e-01 -1.283316969871520996e+00 8.642969727516174316e-01 1.526208996772766113e+00 3.849700093269348145e-01 4.837400093674659729e-02 3.597640097141265869e-01 1.791909933090209961e-01 9.861999750137329102e-02 2.037319988012313843e-01 1.899333000183105469e+00 -4.372070133686065674e-01 3.933500126004219055e-02 -3.425909876823425293e-01 2.800520062446594238e-01 -1.100752949714660645e+00 1.491640061140060425e-01 -1.325089931488037109e-01 -1.283079981803894043e-01 4.698620140552520752e-01 1.717656970024108887e+00 7.679539918899536133e-01 -1.046829968690872192e-01 -3.407829999923706055e-01 -2.769120037555694580e-01 -1.248805999755859375e+00 -5.103390216827392578e-01 -2.729510068893432617e-01 1.542193055152893066e+00 6.298170089721679688e-01 -5.821130275726318359e-01 8.137239813804626465e-01 -9.765399992465972900e-02 8.636149764060974121e-01 5.893260240554809570e-01 -6.434220075607299805e-01 1.207410022616386414e-01 3.895429968833923340e-01 3.256190121173858643e-01 1.430339962244033813e-01 5.399300158023834229e-02 6.904990077018737793e-01 1.142439991235733032e-01 4.179099947214126587e-02 -1.741199940443038940e-02 2.774760127067565918e-01 -2.587249875068664551e-01 1.401039958000183105e-01 -4.829370081424713135e-01 -4.872159957885742188e-01 -1.508149981498718262e+00 -1.028506994247436523e+00 -1.805209964513778687e-01 -1.767230033874511719e-01 2.659580111503601074e-01 -9.348340034484863281e-01 6.184809803962707520e-01 -4.491020143032073975e-01 1.508110016584396362e-01 3.397130072116851807e-01 5.536019802093505859e-01 1.679805040359497070e+00 -1.342831969261169434e+00 -2.183813095092773438e+00 -2.231850028038024902e-01 3.667669892311096191e-01 2.213030010461807251e-01 2.106080055236816406e-01 6.947299838066101074e-02 -8.359900116920471191e-02 -6.052669882774353027e-01 2.818019986152648926e-01 -1.070886969566345215e+00 -1.147369965910911560e-01 4.640370011329650879e-01 3.178940117359161377e-01 -5.854369997978210449e-01 2.114453077316284180e+00 1.770429015159606934e+00 9.342229962348937988e-01 1.408748030662536621e+00 -3.733449876308441162e-01 -6.926239728927612305e-01 -2.908602952957153320e+00 3.215459883213043213e-01 2.507544994354248047e+00 1.034261941909790039e+00 -1.925668954849243164e+00 6.265100091695785522e-02 -8.745499700307846069e-02 1.037176966667175293e+00 9.897199869155883789e-01 1.527369022369384766e+00 -8.728889822959899902e-01 3.016189932823181152e-01 6.635249853134155273e-01 -7.970179915428161621e-01 -8.719679713249206543e-01 -2.137286901473999023e+00 -8.168709874153137207e-01 4.500420093536376953e-01 2.369769960641860962e-01 5.695600062608718872e-02 -2.878459990024566650e-01 -4.978320002555847168e-01 1.796800084412097931e-02 4.621399939060211182e-02 -3.040559887886047363e-01 3.273859918117523193e-01 6.869360208511352539e-01 -4.122360050678253174e-01 1.174580007791519165e-01 4.339199885725975037e-02 5.370479822158813477e-01 -4.765729904174804688e-01 5.847740173339843750e-01 -1.642616987228393555e+00 1.768573999404907227e+00 1.839422941207885742e+00 3.429119884967803955e-01 7.276900112628936768e-02 -1.957380026578903198e-01 -9.379810094833374023e-01 4.786339998245239258e-01 1.290130019187927246e+00 7.498080134391784668e-01 1.879173040390014648e+00 -1.074378013610839844e+00 2.707169950008392334e-01 -2.428000094369053841e-03 -1.216878056526184082e+00 -8.706799894571304321e-02 1.590685009956359863e+00 -2.303750038146972656e+00 1.309273004531860352e+00 -5.823649764060974121e-01 -1.892279982566833496e-01 -1.305199973285198212e-02 -8.901200294494628906e-01 1.620973944664001465e+00 7.436600327491760254e-02 3.646180033683776855e-01 3.353900089859962463e-02 -1.097349971532821655e-01 3.061209917068481445e-01 -1.284939944744110107e-01 3.253560066223144531e-01 -3.472569882869720459e-01 2.675420045852661133e-01 -1.046259999275207520e-01 -3.117089867591857910e-01 -1.976573944091796875e+00 5.840399861335754395e-01 1.603960990905761719e+00 -7.003070116043090820e-01 -1.231286048889160156e+00 -1.347862958908081055e+00 -7.142279744148254395e-01 3.382430076599121094e-01 -1.759000006131827831e-03 1.333399955183267593e-02 -2.314265012741088867e+00 5.428599938750267029e-02 -9.639539718627929688e-01 -1.772793054580688477e+00 6.857259869575500488e-01 -3.420327901840209961e+00 1.632995963096618652e+00 -1.579728960990905762e+00 -3.104200065135955811e-01 -7.808390259742736816e-01 5.793699994683265686e-02 1.050724029541015625e+00 3.693810105323791504e-01 2.638910114765167236e-01 1.052799969911575317e-01 5.353810191154479980e-01 -2.995640039443969727e-01 3.889189958572387695e-01 4.969959855079650879e-01 2.761990129947662354e-01 -6.969439983367919922e-01 4.109900072216987610e-02 -1.232810020446777344e-01 -2.423679977655410767e-01 -5.693199858069419861e-02 1.958110034465789795e-01 -1.299900002777576447e-02 -5.339040160179138184e-01 9.457600116729736328e-02 6.797029972076416016e-01 -9.135069847106933594e-01 1.141939997673034668e+00 2.159940004348754883e-01 -2.956460118293762207e-01 -4.953530132770538330e-01 -9.562969803810119629e-01 4.771670103073120117e-01 5.780109763145446777e-01 -8.300399780273437500e-02 5.973900109529495239e-02 -3.311200141906738281e-01 -5.497320294380187988e-01 4.149489998817443848e-01 1.635659933090209961e-01 1.131379961967468262e+00 -1.155477046966552734e+00 4.829359948635101318e-01 -9.940180182456970215e-01 -2.464340031147003174e-01 -6.146579980850219727e-01 -6.003519892692565918e-01 -1.344508051872253418e+00 1.091071963310241699e+00 1.514322996139526367e+00 -7.018719911575317383e-01 7.144299894571304321e-02 2.778849899768829346e-01 -6.186649799346923828e-01 7.774099707603454590e-02 -3.810760080814361572e-01 -1.337240040302276611e-01 6.237500160932540894e-02 6.446629762649536133e-01 3.433769941329956055e-01 1.471659988164901733e-01 9.053490161895751953e-01 6.929680109024047852e-01 -6.757649779319763184e-01 -4.548749923706054688e-01 -1.445891976356506348e+00 -4.957570135593414307e-01 -4.093880057334899902e-01 5.414609909057617188e-01 -1.454000012017786503e-03 9.207490086555480957e-01 -2.588239908218383789e-01 -1.456573009490966797e+00 1.556510031223297119e-01 -6.880239844322204590e-01 5.201929807662963867e-01 6.119019985198974609e-01 -4.757069945335388184e-01 -6.662400066852569580e-02 -8.247659802436828613e-01 1.602949976921081543e+00 3.138859868049621582e-01 6.790310144424438477e-01 -1.085337996482849121e+00 8.211830258369445801e-01 7.255000062286853790e-03 -1.965160071849822998e-01 2.017779946327209473e-01 -4.198699891567230225e-01 3.501729965209960938e-01 2.744190096855163574e-01 5.309569835662841797e-01 1.813780069351196289e-01 -3.099989891052246094e-01 1.155130982398986816e+00 1.829962968826293945e+00 1.389729976654052734e-01 -1.113900020718574524e-01 -7.370659708976745605e-01 -9.703199863433837891e-01 2.082239985466003418e-01 -8.979900181293487549e-02 -1.214409992098808289e-01 -3.191980123519897461e-01 2.248190045356750488e-01 -1.965869963169097900e-01 4.987849891185760498e-01 9.967800229787826538e-02 -3.084740042686462402e-01 6.874290108680725098e-01 5.452200174331665039e-01 4.101850092411041260e-01 -7.279700040817260742e-01 7.451249957084655762e-01 -2.797552108764648438e+00 4.762220084667205811e-01 1.802340000867843628e-01 2.758150100708007812e-01 -4.507749974727630615e-01 1.578640043735504150e-01 3.051269948482513428e-01 1.574560046195983887e+00 6.292319893836975098e-01 1.673233985900878906e+00 1.744910031557083130e-01 -9.672510027885437012e-01 -4.199590086936950684e-01 -4.085960090160369873e-01 -1.835049986839294434e-01 -3.481490015983581543e-01 4.620999991893768311e-01 6.720589995384216309e-01 1.207809969782829285e-01 -2.183160036802291870e-01 -6.845510005950927734e-01 -4.019829928874969482e-01 -3.002029955387115479e-01 1.604786992073059082e+00 -1.731510013341903687e-01 3.397299945354461670e-01 -2.049179971218109131e-01 2.311960011720657349e-01 1.905406951904296875e+00 2.294519990682601929e-01 -1.760468959808349609e+00 8.229770064353942871e-01 -3.927879929542541504e-01 -2.770870029926300049e-01 2.140429019927978516e+00 5.339099764823913574e-01 -2.947910130023956299e-01 1.310040056705474854e-01 -1.090567946434020996e+00 3.992550075054168701e-01 -5.221740007400512695e-01 3.354650139808654785e-01 2.077240049839019775e-01 1.314969956874847412e-01 -6.826630234718322754e-01 4.412519931793212891e-01 -5.123460292816162109e-01 -3.733110129833221436e-01 1.778646945953369141e+00 -4.300029873847961426e-01 1.008520960807800293e+00 -8.974000215530395508e-01 -8.596000075340270996e-01 1.428050994873046875e+00 -1.145935058593750000e+00 -4.608109891414642334e-01 3.030199930071830750e-02 -3.213309943675994873e-01 8.993129730224609375e-01 -2.032900042831897736e-02 3.416579961776733398e-01 -9.585260152816772461e-01 -8.848360180854797363e-01 -1.184160947799682617e+00 1.546040028333663940e-01 1.507302999496459961e+00 -4.749560058116912842e-01 -3.320199996232986450e-02 -4.068599939346313477e-01 4.056810140609741211e-01 5.764480233192443848e-01 -3.864470124244689941e-01 -1.217278957366943359e+00 -1.380890011787414551e+00 -6.659740209579467773e-01 -1.009860038757324219e+00 -1.628872036933898926e+00 8.824799954891204834e-02 3.839710056781768799e-01 6.757569909095764160e-01 -1.102923035621643066e+00 -7.752670049667358398e-01 1.287112951278686523e+00 1.554267048835754395e+00 -2.383750915527343750e+00 4.651800170540809631e-02 -1.408029943704605103e-01 -7.302200198173522949e-01 -3.903230130672454834e-01 5.561389923095703125e-01 1.990720033645629883e-01 -3.237110078334808350e-01 2.571228981018066406e+00 1.862385988235473633e+00 -7.576299905776977539e-01 9.947919845581054688e-01 -4.037480056285858154e-01 -8.952770233154296875e-01 1.188259005546569824e+00 -1.896031975746154785e+00 -3.023299947381019592e-02 -5.760449767112731934e-01 -3.669120073318481445e-01 3.520089983940124512e-01 4.620879888534545898e-01 3.567169904708862305e-01 -1.670017004013061523e+00 -3.991450071334838867e-01 -6.543549895286560059e-01 -3.070499934256076813e-02 3.617860078811645508e-01 2.160999923944473267e-03 4.736450016498565674e-01 -4.321840107440948486e-01 -5.642979741096496582e-01 4.517360031604766846e-01 7.986789941787719727e-01 -1.599146008491516113e+00 -6.216299906373023987e-02 1.734320074319839478e-01 7.639629840850830078e-01 9.110220074653625488e-01 -7.961649894714355469e-01 1.688907980918884277e+00 -5.474619865417480469e-01 9.689840078353881836e-01 -2.556099891662597656e-01 -1.362347006797790527e+00 -2.516390085220336914e-01 6.412289738655090332e-01 2.119960039854049683e-01 -1.488373994827270508e+00 4.259850084781646729e-01 -9.159539937973022461e-01 3.177500143647193909e-02 -5.053390264511108398e-01 -1.039885997772216797e+00 5.286380052566528320e-01 8.774909973144531250e-01 -6.853439807891845703e-01 2.999700009822845459e-01 -8.673850297927856445e-01 -1.211099978536367416e-02 2.632420063018798828e-01 5.757049918174743652e-01 2.180200070142745972e-02 -1.560239940881729126e-01 2.268249988555908203e-01 7.165489792823791504e-01 5.407540202140808105e-01 1.293800026178359985e-02 2.046159952878952026e-01 6.788640022277832031e-01 -2.565180063247680664e-01 -5.835940241813659668e-01 5.008080005645751953e-01 8.566290140151977539e-01 1.477784991264343262e+00 9.362000040709972382e-03 -6.889240145683288574e-01 5.493299961090087891e-01 4.791049957275390625e-01 6.065689921379089355e-01 2.364879995584487915e-01 -3.232499957084655762e-02 -9.748099744319915771e-02 -1.697615981101989746e+00 1.450754046440124512e+00 3.940779864788055420e-01 -1.230000033974647522e-01 4.176740050315856934e-01 1.336400061845779419e-01 1.470914959907531738e+00 -1.582089960575103760e-01 1.521792054176330566e+00 7.903749942779541016e-01 4.379279911518096924e-01 2.030059993267059326e-01 -4.133769869804382324e-01 -2.527860105037689209e-01 1.672700047492980957e-01 4.544900059700012207e-01 -3.909400105476379395e-01 6.735839843750000000e-01 9.255999922752380371e-01 6.916599720716476440e-02 4.920569956302642822e-01 -4.115200042724609375e-02 2.530849874019622803e-01 -1.537819951772689819e-01 -9.431290030479431152e-01 4.366280138492584229e-01 7.936429977416992188e-01 1.977270960807800293e+00 -1.046839952468872070e+00 8.902909755706787109e-01 2.359360009431838989e-01 -3.348810076713562012e-01 1.040233969688415527e+00 -4.932479858398437500e-01 -2.346729934215545654e-01 2.086949944496154785e-01 -1.980209946632385254e-01 1.255470067262649536e-01 4.611859917640686035e-01 -3.259719908237457275e-01 6.424340009689331055e-01 -1.281750053167343140e-01 9.312260150909423828e-01 1.008103966712951660e+00 -1.316729933023452759e-01 -3.101949989795684814e-01 -3.088710010051727295e-01 4.906130135059356689e-01 8.216599822044372559e-01 8.316109776496887207e-01 -4.892939925193786621e-01 1.034934043884277344e+00 6.843079924583435059e-01 -4.510079920291900635e-01 1.692579984664916992e-01 -1.732395052909851074e+00 6.629700213670730591e-02 9.370219707489013672e-01 -6.914460062980651855e-01 -5.401600152254104614e-02 -1.862434029579162598e+00 1.608049988746643066e+00 1.773074984550476074e+00 6.111410260200500488e-01 6.149849891662597656e-01 7.713680267333984375e-01 -1.188460946083068848e+00 -7.648199796676635742e-02 4.296010136604309082e-01 -6.771799921989440918e-02 -2.056239992380142212e-01 -1.033390998840332031e+00 1.145503997802734375e+00 2.174289971590042114e-01 9.308300167322158813e-02 -2.409570068120956421e-01 7.894660234451293945e-01 5.515149831771850586e-01 -1.345060020685195923e-01 1.400630027055740356e-01 -4.275900125503540039e-01 4.814560115337371826e-01 -4.933190047740936279e-01 -2.799960076808929443e-01 -6.786590218544006348e-01 -1.858600042760372162e-02 -5.444300174713134766e-02 4.403730034828186035e-01 -9.684000164270401001e-03 -3.036769926548004150e-01 9.797670245170593262e-01 7.796360254287719727e-01 9.622030258178710938e-01 -3.656120002269744873e-01 4.064339995384216309e-01 2.062228918075561523e+00 -3.583739995956420898e-01 8.967300057411193848e-01 7.607390284538269043e-01 -6.104670166969299316e-01 7.563400268554687500e-02 5.104929804801940918e-01 -4.669199883937835693e-02 4.959850013256072998e-01 4.461430013179779053e-01 -1.143362998962402344e+00 5.258790254592895508e-01 1.040084958076477051e+00 -1.843809932470321655e-01 2.103142023086547852e+00 -2.258063077926635742e+00 -1.664394021034240723e+00 -9.990509748458862305e-01 -1.991299912333488464e-02 3.839719891548156738e-01 -2.143079936504364014e-01 -1.263699978590011597e-01 -6.430450081825256348e-01 2.032320052385330200e-01 4.356150031089782715e-01