2.809669303894042969e+01 -6.757953643798828125e+00 -1.693337917327880859e+00 -6.757953643798828125e+00 1.738301849365234375e+01 -8.661663055419921875e+00 -1.693337917327880859e+00 -8.661663055419921875e+00 1.179151344299316406e+01
2.407544898986816406e+01 -5.532050132751464844e+00 -1.122736930847167969e+01 -5.532050132751464844e+00 2.893131256103515625e+01 7.790740966796875000e+00 -1.122736930847167969e+01 7.790740966796875000e+00 3.898612213134765625e+01
-1.023954200744628906e+01 2.669866561889648438e+00 -2.035686111450195312e+01 2.669866561889648438e+00 1.963531684875488281e+01 1.661275982856750488e+00 -2.035686111450195312e+01 1.661275982856750488e+00 2.418188858032226562e+01
2.620905303955078125e+01 -2.661482810974121094e+01 -1.311511874198913574e+00 -2.661482810974121094e+01 8.866160392761230469e+00 -1.469943761825561523e+00 -1.311511874198913574e+00 -1.469943761825561523e+00 2.309568023681640625e+01
-1.442515182495117188e+01 -1.266160964965820312e+00 -4.984778881072998047e+00 -1.266160964965820312e+00 -1.227041339874267578e+01 5.902482986450195312e+00 -4.984778881072998047e+00 5.902482986450195312e+00 -2.819186973571777344e+01
1.698249053955078125e+01 4.779433727264404297e+00 -4.793665885925292969e+00 4.779433727264404297e+00 2.501230430603027344e+01 3.782366752624511719e+00 -4.793665885925292969e+00 3.782366752624511719e+00 2.730915641784667969e+01
1.413624477386474609e+01 -1.886896514892578125e+01 3.578107059001922607e-01 -1.886896514892578125e+01 -3.911470651626586914e+00 2.442973852157592773e+00 3.578107059001922607e-01 2.442973852157592773e+00 1.809555244445800781e+01
1.109491443634033203e+01 -2.344360113143920898e+00 3.839875698089599609e+00 -2.344360113143920898e+00 1.349288177490234375e+01 2.409787327051162720e-01 3.839875698089599609e+00 2.409787327051162720e-01 -5.381579399108886719e+00
3.017645835876464844e+01 1.181760215759277344e+01 4.236368238925933838e-01 1.181760215759277344e+01 3.979197311401367188e+01 9.796170145273208618e-02 4.236368238925933838e-01 9.796170145273208618e-02 1.260401630401611328e+01
3.888990402221679688e+01 -3.979861259460449219e+00 -7.348216533660888672e+00 -3.979861259460449219e+00 5.897432327270507812e+00 1.833808517456054688e+01 -7.348216533660888672e+00 1.833808517456054688e+01 4.271215057373046875e+01
4.299490737915039062e+01 -1.185440254211425781e+01 7.989687919616699219e+00 -1.185440254211425781e+01 2.880847167968750000e+01 5.969033718109130859e+00 7.989687919616699219e+00 5.969033718109130859e+00 3.314610671997070312e+01
1.696601104736328125e+01 1.914831542968750000e+01 -3.703194141387939453e+00 1.914831542968750000e+01 2.772767448425292969e+01 1.165420246124267578e+01 -3.703194141387939453e+00 1.165420246124267578e+01 8.994184494018554688e+00
4.876734733581542969e+00 2.543853521347045898e+00 1.374259376525878906e+01 2.543853521347045898e+00 1.191500854492187500e+01 3.800953149795532227e+00 1.374259376525878906e+01 3.800953149795532227e+00 -5.706099510192871094e+00
-1.330587863922119141e+01 -4.653295040130615234e+00 -9.037953376770019531e+00 -4.653295040130615234e+00 -1.068391799926757812e+01 -5.470545291900634766e+00 -9.037953376770019531e+00 -5.470545291900634766e+00 -1.185976791381835938e+01
2.926646232604980469e+00 -1.137274265289306641e+01 1.201117515563964844e+01 -1.137274265289306641e+01 1.645583724975585938e+01 1.231824398040771484e+01 1.201117515563964844e+01 1.231824398040771484e+01 3.414613485336303711e+00
6.670681953430175781e+00 1.744348853826522827e-01 -1.006716251373291016e+01 1.744348853826522827e-01 1.600440597534179688e+01 -4.482676506042480469e+00 -1.006716251373291016e+01 -4.482676506042480469e+00 2.934918212890625000e+01
1.103961563110351562e+01 -7.024755954742431641e+00 -1.843143939971923828e+00 -7.024755954742431641e+00 -6.100646495819091797e+00 -5.967913627624511719e+00 -1.843143939971923828e+00 -5.967913627624511719e+00 1.979169082641601562e+01
1.372210979461669922e+01 -7.002771377563476562e+00 -8.793055534362792969e+00 -7.002771377563476562e+00 1.340803241729736328e+01 1.259097218513488770e+00 -8.793055534362792969e+00 1.259097218513488770e+00 6.147550106048583984e+00
2.550863647460937500e+01 -1.884166121482849121e+00 1.049928569793701172e+01 -1.884166121482849121e+00 3.541619873046875000e+01 -3.851517677307128906e+00 1.049928569793701172e+01 -3.851517677307128906e+00 4.367751693725585938e+01
1.498726940155029297e+01 -9.234699606895446777e-01 -2.881093621253967285e-01 -9.234699606895446777e-01 2.653013229370117188e+01 -9.056997299194335938e-01 -2.881093621253967285e-01 -9.056997299194335938e-01 -3.705044984817504883e+00
-7.800921916961669922e+00 1.167544555664062500e+01 6.292982101440429688e+00 1.167544555664062500e+01 -1.512784957885742188e+01 -3.864464759826660156e+00 6.292982101440429688e+00 -3.864464759826660156e+00 -2.548988914489746094e+01
4.469618988037109375e+01 7.714505195617675781e+00 1.403446006774902344e+01 7.714505195617675781e+00 2.960250854492187500e+01 6.970873355865478516e+00 1.403446006774902344e+01 6.970873355865478516e+00 3.347419738769531250e+01
1.872203636169433594e+01 2.768886327743530273e+00 -4.423724651336669922e+00 2.768886327743530273e+00 1.684178352355957031e+01 -1.688418030738830566e+00 -4.423724651336669922e+00 -1.688418030738830566e+00 -2.645991325378417969e+00
3.079148292541503906e+01 -8.393477439880371094e+00 8.610802650451660156e+00 -8.393477439880371094e+00 1.953722572326660156e+01 1.714070558547973633e+00 8.610802650451660156e+00 1.714070558547973633e+00 1.016376399993896484e+01
2.455823898315429688e+01 -1.770707893371582031e+01 -2.969472646713256836e+00 -1.770707893371582031e+01 2.254315567016601562e+01 -5.369050979614257812e+00 -2.969472646713256836e+00 -5.369050979614257812e+00 1.817603492736816406e+01
7.124384403228759766e+00 1.898930311203002930e+00 -1.157110977172851562e+01 1.898930311203002930e+00 6.082653403282165527e-01 7.724826931953430176e-01 -1.157110977172851562e+01 7.724826931953430176e-01 -6.339924812316894531e+00
3.077988624572753906e+01 -2.379631280899047852e+00 -8.209216117858886719e+00 -2.379631280899047852e+00 2.137225723266601562e+01 1.872925758361816406e+01 -8.209216117858886719e+00 1.872925758361816406e+01 4.104716110229492188e+01
1.710124206542968750e+01 -9.163078308105468750e+00 -1.105457687377929688e+01 -9.163078308105468750e+00 1.153815388679504395e+00 1.415631866455078125e+01 -1.105457687377929688e+01 1.415631866455078125e+01 3.511447143554687500e+01
9.868618965148925781e+00 -8.502012252807617188e+00 -5.695849895477294922e+00 -8.502012252807617188e+00 1.637607765197753906e+01 1.594007873535156250e+01 -5.695849895477294922e+00 1.594007873535156250e+01 -6.230539798736572266e+00
1.019000339508056641e+01 -2.398916959762573242e+00 4.404388964176177979e-01 -2.398916959762573242e+00 3.269238281250000000e+01 -1.885654687881469727e+00 4.404388964176177979e-01 -1.885654687881469727e+00 2.549040794372558594e+01
4.522832870483398438e+01 -1.003174400329589844e+01 2.401551723480224609e+00 -1.003174400329589844e+01 3.786124706268310547e+00 -3.394796133041381836e+00 2.401551723480224609e+00 -3.394796133041381836e+00 2.012439155578613281e+01
-5.736660385131835938e+01 -6.920714855194091797e+00 3.414117813110351562e+00 -6.920714855194091797e+00 -4.099474716186523438e+01 -1.372819709777832031e+01 3.414117813110351562e+00 -1.372819709777832031e+01 -6.064989852905273438e+01
2.662478446960449219e+01 5.855911254882812500e+00 -4.506432533264160156e+00 5.855911254882812500e+00 2.801829910278320312e+01 -7.063673496246337891e+00 -4.506432533264160156e+00 -7.063673496246337891e+00 5.029780387878417969e+00
-2.886357069015502930e+00 -6.358814716339111328e+00 -1.831069374084472656e+01 -6.358814716339111328e+00 4.093306139111518860e-03 -8.957731246948242188e+00 -1.831069374084472656e+01 -8.957731246948242188e+00 -1.089547157287597656e+00
1.641290473937988281e+01 2.201395511627197266e+00 -2.574237346649169922e+00 2.201395511627197266e+00 -4.379661083221435547e+00 7.032984733581542969e+00 -2.574237346649169922e+00 7.032984733581542969e+00 1.367576408386230469e+01
8.056725502014160156e+00 7.925542831420898438e+00 -2.683482170104980469e+00 7.925542831420898438e+00 3.544546365737915039e+00 9.345797896385192871e-01 -2.683482170104980469e+00 9.345797896385192871e-01 -3.215044736862182617e+00
3.270719909667968750e+01 1.665996789932250977e+00 -1.694741725921630859e+00 1.665996789932250977e+00 1.774417686462402344e+01 4.438641071319580078e+00 -1.694741725921630859e+00 4.438641071319580078e+00 1.235470676422119141e+01
2.027895545959472656e+01 -5.067630767822265625e+00 -8.595773696899414062e+00 -5.067630767822265625e+00 3.461529922485351562e+01 -5.765782833099365234e+00 -8.595773696899414062e+00 -5.765782833099365234e+00 3.937871551513671875e+01
-4.544422149658203125e+01 -1.126443147659301758e-01 1.206719303131103516e+01 -1.126443147659301758e-01 -4.095004653930664062e+01 -1.382348728179931641e+01 1.206719303131103516e+01 -1.382348728179931641e+01 -6.146448516845703125e+01
-1.527117061614990234e+01 -3.154410362243652344e+00 -9.147768974304199219e+00 -3.154410362243652344e+00 -8.341404914855957031e+00 -3.316955327987670898e+00 -9.147768974304199219e+00 -3.316955327987670898e+00 -4.015377998352050781e+00
2.888580894470214844e+01 -1.297225856781005859e+01 -6.645025610923767090e-01 -1.297225856781005859e+01 1.303499603271484375e+01 -3.904754161834716797e+00 -6.645025610923767090e-01 -3.904754161834716797e+00 3.986399841308593750e+01
3.929015350341796875e+01 7.025443077087402344e+00 2.391639471054077148e+00 7.025443077087402344e+00 4.829634475708007812e+01 6.294541835784912109e+00 2.391639471054077148e+00 6.294541835784912109e+00 3.382928848266601562e+01
4.902315616607666016e+00 1.352101325988769531e+00 -4.528848648071289062e+00 1.352101325988769531e+00 2.026537895202636719e+01 -4.978960990905761719e+00 -4.528848648071289062e+00 -4.978960990905761719e+00 1.529094600677490234e+01
1.071754837036132812e+01 3.388236999511718750e+00 5.472394943237304688e+00 3.388236999511718750e+00 1.364760780334472656e+01 1.121908187866210938e+00 5.472394943237304688e+00 1.121908187866210938e+00 1.608147811889648438e+01
6.500154495239257812e+00 5.329666137695312500e+00 7.805564403533935547e+00 5.329666137695312500e+00 4.937059402465820312e+00 9.456936836242675781e+00 7.805564403533935547e+00 9.456936836242675781e+00 2.135348129272460938e+01
1.213457393646240234e+01 -7.243463993072509766e-01 -7.334428787231445312e+00 -7.243463993072509766e-01 2.724060821533203125e+01 -6.047968864440917969e+00 -7.334428787231445312e+00 -6.047968864440917969e+00 1.889088630676269531e+01
-1.871962308883666992e+00 2.435998916625976562e+00 2.523085355758666992e+00 2.435998916625976562e+00 -6.832334995269775391e+00 3.352824926376342773e+00 2.523085355758666992e+00 3.352824926376342773e+00 -1.802025032043457031e+01
1.944586944580078125e+01 5.855610847473144531e+00 -6.213764190673828125e+00 5.855610847473144531e+00 8.294344902038574219e+00 2.268720626831054688e+01 -6.213764190673828125e+00 2.268720626831054688e+01 6.233668804168701172e+00
4.439118194580078125e+01 2.412102222442626953e+00 8.335824966430664062e+00 2.412102222442626953e+00 3.314884185791015625e+01 -3.518328964710235596e-01 8.335824966430664062e+00 -3.518328964710235596e-01 2.591889953613281250e+01
3.437191390991210938e+01 -2.630249023437500000e+00 -1.482779979705810547e+01 -2.630249023437500000e+00 9.546430587768554688e+00 1.216397762298583984e+01 -1.482779979705810547e+01 1.216397762298583984e+01 1.209572219848632812e+01
-9.819341659545898438e+00 -1.214021492004394531e+01 -2.506792068481445312e+00 -1.214021492004394531e+01 -3.996567487716674805e+00 4.140047073364257812e+00 -2.506792068481445312e+00 4.140047073364257812e+00 -1.526569938659667969e+01
-5.881129074096679688e+01 -9.517058372497558594e+00 6.454052448272705078e+00 -9.517058372497558594e+00 -3.746618270874023438e+01 -5.103716373443603516e+00 6.454052448272705078e+00 -5.103716373443603516e+00 -5.391336059570312500e+01
