
     Program PWSCF v.5.4.0 starts on 22Sep2019 at 18:36:45 

     This program is part of the open-source Quantum ESPRESSO suite
     for quantum simulation of materials; please cite
         "P. Giannozzi et al., J. Phys.:Condens. Matter 21 395502 (2009);
          URL http://www.quantum-espresso.org", 
     in publications or presentations arising from this work. More details at
     http://www.quantum-espresso.org/quote

           HOST :    @host@
           ARCH :    
             CC :    cc
            CPP :    cpp
            F90 :    mpif90
            F77 :    gfortran
         DFLAGS :    -D__GFORTRAN -D__STD_F95 -D__FFTW3 -D__MPI -D__PARA
      BLAS LIBS :    -lopenblas
    LAPACK LIBS :    -lopenblas
       FFT LIBS :    -lfftw3
      MASS LIBS :    

     Parallel version (MPI), running on    28 processors
     R & G space division:  proc/nbgrp/npool/nimage =      28
     Waiting for input...
     Reading input from standard input
Warning: card &IONS ignored
Warning: card / ignored
Warning: card &CELL ignored
Warning: card / ignored

     Current dimensions of program PWSCF are:
     Max number of different atomic species (ntypx) = 10
     Max number of k-points (npk) =  40000
     Max angular momentum in pseudopotentials (lmaxx) =  3

     IMPORTANT: XC functional enforced from input :
     Exchange-correlation      = PBE ( 1  4  3  4 0 0)
     Any further DFT definition will be discarded
     Please, verify this is what you really want


     gamma-point specific algorithms are used

     Subspace diagonalization in iterative solution of the eigenvalue problem:
     a serial algorithm will be used


     Parallelization info
     --------------------
     sticks:   dense  smooth     PW     G-vecs:    dense   smooth      PW
     Min         445     445    110                37558    37558    4694
     Max         448     448    112                37564    37564    4708
     Sum       12517   12517   3125              1051747  1051747  131683
     Tot        6259    6259   1563



     bravais-lattice index     =            1
     lattice parameter (alat)  =      18.8973  a.u.
     unit-cell volume          =    6748.3346 (a.u.)^3
     number of atoms/cell      =            5
     number of atomic types    =            2
     number of electrons       =         8.00
     number of Kohn-Sham states=            4
     kinetic-energy cutoff     =     110.0000  Ry
     charge density cutoff     =     440.0000  Ry
     convergence threshold     =      1.0E-06
     mixing beta               =       0.5000
     number of iterations used =            8  plain     mixing
     Exchange-correlation      = PBE ( 1  4  3  4 0 0)

     celldm(1)=  18.897261  celldm(2)=   0.000000  celldm(3)=   0.000000
     celldm(4)=   0.000000  celldm(5)=   0.000000  celldm(6)=   0.000000

     crystal axes: (cart. coord. in units of alat)
               a(1) = (   1.000000   0.000000   0.000000 )  
               a(2) = (   0.000000   1.000000   0.000000 )  
               a(3) = (   0.000000   0.000000   1.000000 )  

     reciprocal axes: (cart. coord. in units 2 pi/alat)
               b(1) = (  1.000000  0.000000  0.000000 )  
               b(2) = (  0.000000  1.000000  0.000000 )  
               b(3) = (  0.000000  0.000000  1.000000 )  


     PseudoPot. # 1 for  H read from file:
     ../pseudo/H.tm.pbe.UPF
     MD5 check sum: 4b614d66af87240b7a5107bfa527a767
     Pseudo is Norm-conserving, Zval =  1.0
     Generated using "atomic" code by A. Dal Corso  v.5.2.0
     Using radial grid of  929 points,  0 beta functions with: 

     PseudoPot. # 2 for  C read from file:
     ../pseudo/C.tm.pbe.UPF
     MD5 check sum: a4f27fcb9b24331b00ace8e732a7e062
     Pseudo is Norm-conserving, Zval =  4.0
     Generated using "atomic" code by A. Dal Corso  v.5.2.0
     Using radial grid of 1073 points,  1 beta functions with: 
                l(1) =   1

     atomic species   valence    mass     pseudopotential
        H              1.00     1.00000      H( 1.00)
        C              4.00     1.00000      C( 1.00)

     No symmetry found



   Cartesian axes

     site n.     atom                  positions (alat units)
         1           H   tau(   1) = (   0.5396180   0.4024090   0.3552680  )
         2           H   tau(   2) = (   0.4053030   0.4880120   0.4347610  )
         3           H   tau(   3) = (   0.5641420   0.5655160   0.4263660  )
         4           H   tau(   4) = (   0.5360450   0.4181600   0.5304480  )
         5           C   tau(   5) = (   0.5114250   0.4693520   0.4362790  )

     number of k points=     1
                       cart. coord. in units 2pi/alat
        k(    1) = (   0.0000000   0.0000000   0.0000000), wk =   2.0000000

     Dense  grid:   525874 G-vectors     FFT dimensions: ( 128, 128, 128)

     Largest allocated arrays     est. size (Mb)     dimensions
        Kohn-Sham Wavefunctions         0.14 Mb     (    2354,    4)
        NL pseudopotentials             0.11 Mb     (    2354,    3)
        Each V/rho on FFT grid          1.25 Mb     (   81920)
        Each G-vector array             0.14 Mb     (   18782)
        G-vector shells                 0.02 Mb     (    2785)
     Largest temporary arrays     est. size (Mb)     dimensions
        Auxiliary wavefunctions         0.29 Mb     (    2354,   16)
        Each subspace H/S matrix        0.00 Mb     (      16,   16)
        Each <psi_i|beta_j> matrix      0.00 Mb     (       3,    4)
        Arrays for rho mixing          10.00 Mb     (   81920,    8)

     Initial potential from superposition of free atoms
     Check: negative starting charge=   -0.000387

     starting charge    7.99992, renormalised to    8.00000

     negative rho (up, down):  3.866E-04 0.000E+00
     Starting wfc are    8 randomized atomic wfcs

     total cpu time spent up to now is        2.9 secs

     per-process dynamical memory:   430.7 Mb

     Self-consistent Calculation

     iteration #  1     ecut=   110.00 Ry     beta=0.50
     Davidson diagonalization with overlap
     ethr =  1.00E-02,  avg # of iterations =  2.0

     negative rho (up, down):  1.824E-04 0.000E+00

     total cpu time spent up to now is        3.4 secs

     total energy              =     -16.01909988 Ry
     Harris-Foulkes estimate   =     -16.41544528 Ry
     estimated scf accuracy    <       0.70399652 Ry

     iteration #  2     ecut=   110.00 Ry     beta=0.50
     Davidson diagonalization with overlap
     ethr =  8.80E-03,  avg # of iterations =  2.0

     negative rho (up, down):  9.522E-05 0.000E+00

     total cpu time spent up to now is        4.0 secs

     total energy              =     -16.15370795 Ry
     Harris-Foulkes estimate   =     -16.17257225 Ry
     estimated scf accuracy    <       0.04933075 Ry

     iteration #  3     ecut=   110.00 Ry     beta=0.50
     Davidson diagonalization with overlap
     ethr =  6.17E-04,  avg # of iterations =  1.0

     negative rho (up, down):  4.923E-06 0.000E+00

     total cpu time spent up to now is        4.4 secs

     total energy              =     -16.15184038 Ry
     Harris-Foulkes estimate   =     -16.15727676 Ry
     estimated scf accuracy    <       0.01141252 Ry

     iteration #  4     ecut=   110.00 Ry     beta=0.50
     Davidson diagonalization with overlap
     ethr =  1.43E-04,  avg # of iterations =  2.0

     negative rho (up, down):  5.106E-06 0.000E+00

     total cpu time spent up to now is        4.9 secs

     total energy              =     -16.15370815 Ry
     Harris-Foulkes estimate   =     -16.15582189 Ry
     estimated scf accuracy    <       0.00485552 Ry

     iteration #  5     ecut=   110.00 Ry     beta=0.50
     Davidson diagonalization with overlap
     ethr =  6.07E-05,  avg # of iterations =  1.0

     negative rho (up, down):  1.039E-06 0.000E+00

     total cpu time spent up to now is        5.5 secs

     total energy              =     -16.15390549 Ry
     Harris-Foulkes estimate   =     -16.15412075 Ry
     estimated scf accuracy    <       0.00035762 Ry

     iteration #  6     ecut=   110.00 Ry     beta=0.50
     Davidson diagonalization with overlap
     ethr =  4.47E-06,  avg # of iterations =  3.0

     total cpu time spent up to now is        6.1 secs

     total energy              =     -16.15413133 Ry
     Harris-Foulkes estimate   =     -16.15420892 Ry
     estimated scf accuracy    <       0.00018784 Ry

     iteration #  7     ecut=   110.00 Ry     beta=0.50
     Davidson diagonalization with overlap
     ethr =  2.35E-06,  avg # of iterations =  2.0

     total cpu time spent up to now is        6.6 secs

     total energy              =     -16.15414942 Ry
     Harris-Foulkes estimate   =     -16.15415369 Ry
     estimated scf accuracy    <       0.00000991 Ry

     iteration #  8     ecut=   110.00 Ry     beta=0.50
     Davidson diagonalization with overlap
     ethr =  1.24E-07,  avg # of iterations =  2.0

     total cpu time spent up to now is        7.1 secs

     End of self-consistent calculation

          k = 0.0000 0.0000 0.0000 ( 65842 PWs)   bands (ev):

   -16.8601  -9.4061  -9.2930  -9.0942

     highest occupied level (ev):    -9.0942

!    total energy              =     -16.15415124 Ry
     Harris-Foulkes estimate   =     -16.15415152 Ry
     estimated scf accuracy    <       0.00000067 Ry

     The total energy is the sum of the following terms:

     one-electron contribution =     -40.35857664 Ry
     hartree contribution      =      21.00695115 Ry
     xc contribution           =      -6.35446921 Ry
     ewald contribution        =       9.55194346 Ry

     convergence has been achieved in   8 iterations

     Forces acting on atoms (Ry/au):

     atom    1 type  1   force =     0.00038305   -0.00234436   -0.01243101
     atom    2 type  1   force =    -0.02509111    0.00224626   -0.00407001
     atom    3 type  1   force =     0.00149405   -0.00888007    0.00460110
     atom    4 type  1   force =     0.00358197    0.00969429    0.00020682
     atom    5 type  2   force =     0.01963205   -0.00071612    0.01169311

     Total force =     0.039283     Total SCF correction =     0.000250


     entering subroutine stress ...

          total   stress  (Ry/bohr**3)                   (kbar)     P=    0.09
   0.00000604  -0.00000150   0.00000092          0.89     -0.22      0.14
  -0.00000150  -0.00000513   0.00000332         -0.22     -0.75      0.49
   0.00000092   0.00000332   0.00000085          0.14      0.49      0.13


     init_run     :      2.46s CPU      2.50s WALL (       1 calls)
     electrons    :      4.10s CPU      4.22s WALL (       1 calls)
     forces       :      0.90s CPU      0.90s WALL (       1 calls)
     stress       :      1.10s CPU      1.11s WALL (       1 calls)

     Called by init_run:
     wfcinit      :      0.11s CPU      0.11s WALL (       1 calls)
     potinit      :      0.97s CPU      1.00s WALL (       1 calls)

     Called by electrons:
     c_bands      :      1.92s CPU      1.96s WALL (       8 calls)
     sum_band     :      0.44s CPU      0.44s WALL (       8 calls)
     v_of_rho     :      1.71s CPU      1.80s WALL (       9 calls)
     mix_rho      :      0.21s CPU      0.21s WALL (       8 calls)

     Called by c_bands:
     init_us_2    :      0.04s CPU      0.04s WALL (      17 calls)
     regterg      :      1.90s CPU      1.93s WALL (       8 calls)

     Called by sum_band:

     Called by *egterg:
     h_psi        :      1.95s CPU      1.98s WALL (      24 calls)
     g_psi        :      0.01s CPU      0.01s WALL (      15 calls)
     rdiaghg      :      0.00s CPU      0.00s WALL (      23 calls)

     Called by h_psi:
     add_vuspsi   :      0.00s CPU      0.00s WALL (      24 calls)

     General routines
     calbec       :      0.76s CPU      0.76s WALL (      29 calls)
     fft          :      1.65s CPU      1.76s WALL (     106 calls)
     fftw         :      1.20s CPU      1.23s WALL (     116 calls)

     Parallel routines
     fft_scatter  :      1.20s CPU      1.30s WALL (     222 calls)

     PWSCF        :     8.93s CPU         9.14s WALL


   This run was terminated on:  18:36:54  22Sep2019            

=------------------------------------------------------------------------------=
   JOB DONE.
=------------------------------------------------------------------------------=
