6.537390232086181641e+00 8.752880096435546875e+00 7.944509983062744141e+00 7.860650062561035156e+00 4.037600040435791016e+00 1.453670978546142578e+01 4.284510135650634766e+00 7.980110168457031250e+00 8.751079559326171875e+00 1.069441032409667969e+01 1.333191013336181641e+01 1.067850971221923828e+01 8.287520408630371094e+00 1.335480976104736328e+01 1.251430988311767578e+01 1.355900955200195312e+01 3.801100015640258789e+00 1.175401020050048828e+01 3.500020027160644531e+00 5.844970226287841797e+00 7.230259895324707031e+00 1.615290045738220215e+00 1.032040977478027344e+01 1.376171016693115234e+01 1.486340999603271484e+01 1.367710971832275391e+01 6.838129997253417969e+00 1.112040996551513672e+01 1.495730972290039062e+01 1.272620964050292969e+01 1.085700988769531250e+01 1.415120983123779297e+01 6.803329944610595703e+00 4.170559883117675781e+00 5.230299949645996094e+00 1.088490009307861328e+00 8.727939605712890625e+00 1.293321037292480469e+01 1.111449956893920898e+00 1.004341030120849609e+01 1.059300994873046875e+01 1.408111000061035156e+01 9.453069686889648438e+00 7.762800216674804688e+00 4.798419952392578125e+00 5.010379791259765625e+00 5.921689987182617188e+00 4.895949840545654297e+00 1.015550994873046875e+01 2.929140090942382812e+00 1.523581027984619141e+01 6.255959987640380859e+00 1.487851047515869141e+01 7.421529769897460938e+00 1.047801017761230469e+01 2.313090085983276367e+00 4.183760166168212891e+00 5.973050117492675781e+00 2.173880100250244141e+00 6.365489959716796875e+00 1.047101020812988281e+01 7.900129795074462891e+00 7.375259876251220703e+00 6.744480133056640625e+00 7.408170223236083984e+00 1.376791000366210938e+01 4.030149936676025391e+00 1.418651008605957031e+01 1.330871009826660156e+01 1.834710001945495605e+00 1.502490043640136719e+00 1.030560016632080078e+00 1.422391033172607422e+01 1.049901008605957031e+01 1.396121025085449219e+01 1.195309996604919434e+00 3.134769916534423828e+00 6.563729763031005859e+00 1.322050952911376953e+01 1.400020980834960938e+01 4.543010234832763672e+00 1.319221019744873047e+01 6.383230209350585938e+00 1.074580955505371094e+01 2.267800092697143555e+00 1.183310985565185547e+01 7.620950222015380859e+00 3.619290113449096680e+00 2.740420103073120117e+00 5.009220123291015625e+00 9.894410133361816406e+00 5.545080184936523438e+00 1.172350978851318359e+01 6.501580238342285156e+00 1.650799989700317383e+00 1.385321044921875000e+01 3.778830051422119141e+00 1.039270973205566406e+01 5.016429901123046875e+00 1.589740037918090820e+00 6.570690155029296875e+00 1.049481010437011719e+01 1.874570012092590332e+00 1.742110013961791992e+00 1.166281032562255859e+01 6.130119800567626953e+00 1.018270969390869141e+01 1.186021041870117188e+01 1.328621006011962891e+01 1.445370960235595703e+01 9.332130432128906250e+00 6.263090133666992188e+00 1.092070960998535156e+01 5.805230140686035156e+00 4.764299988746643066e-01 8.475959777832031250e+00 7.155610084533691406e+00 4.673260211944580078e+00 1.417121028900146484e+01 1.060511016845703125e+01 4.549920082092285156e+00 1.305280971527099609e+01 6.879179954528808594e+00 9.224450111389160156e+00 1.016090965270996094e+01 1.565829992294311523e+00 2.591140031814575195e+00 1.510031032562255859e+01 4.731679916381835938e+00 8.787179946899414062e+00 5.481609821319580078e+00 3.139580011367797852e+00 1.388020992279052734e+01 1.045869946479797363e+00 3.361089944839477539e+00 3.163579940795898438e+00 1.183660984039306641e+01 1.207001018524169922e+01 9.793400168418884277e-01 4.328370094299316406e+00 9.072210311889648438e+00 1.053540992736816406e+01 7.230899930000305176e-01 1.486379981040954590e+00 6.524539947509765625e+00 3.946140050888061523e+00 4.423880100250244141e+00 2.233580112457275391e+00 1.500090980529785156e+01 9.913310050964355469e+00 1.290779948234558105e+00 4.294799864292144775e-01 7.708600044250488281e+00 1.314330959320068359e+01 7.914470195770263672e+00 4.254930019378662109e+00 7.889560222625732422e+00 1.456420993804931641e+01 3.400569915771484375e+00 4.082729816436767578e+00 8.140060424804687500e+00 3.569289922714233398e+00 9.528280258178710938e+00 1.065151023864746094e+01 8.147560119628906250e+00 9.005100250244140625e+00 2.669130086898803711e+00 6.568319797515869141e+00 2.448610067367553711e+00 4.435080051422119141e+00 2.858119964599609375e+00 2.592649936676025391e+00 1.153940963745117188e+01 6.863399744033813477e-01 1.294291019439697266e+01 2.975939989089965820e+00 5.076290130615234375e+00 7.267620086669921875e+00 8.657039642333984375e+00 1.643509984016418457e+00 1.108271026611328125e+01 1.200330018997192383e+00 8.209489822387695312e+00 8.183870315551757812e+00 7.268700003623962402e-01 1.215571022033691406e+01 1.235480976104736328e+01 8.471050262451171875e+00 1.256480979919433594e+01 1.035151004791259766e+01 1.511970996856689453e+01 4.336380004882812500e+00 1.103851032257080078e+01 2.827009916305541992e+00 1.252241039276123047e+01 1.118190956115722656e+01 6.980060100555419922e+00 4.591900110244750977e-01 5.356349945068359375e+00 3.970560073852539062e+00 8.265970230102539062e+00 7.220109939575195312e+00 6.719019889831542969e+00 6.246339797973632812e+00 3.050940036773681641e+00 1.036201000213623047e+01 9.712900161743164062e+00 4.553249835968017578e+00 8.960820198059082031e+00 1.061300039291381836e+00 2.123830080032348633e+00 7.114649772644042969e+00 1.107800006866455078e-01 4.574850082397460938e+00 9.174100160598754883e-01 1.724810004234313965e+00 1.077101039886474609e+01 4.727519989013671875e+00 1.730810046195983887e+00 9.189209938049316406e+00 1.323340988159179688e+01 8.409279823303222656e+00 9.392089843750000000e+00 2.187839984893798828e+00 1.029870986938476562e+01 1.118801021575927734e+01 1.400191020965576172e+01 1.336999982595443726e-02 1.357711029052734375e+01 2.456729888916015625e+00 7.874539852142333984e+00 1.428090953826904297e+01 1.432030963897705078e+01 1.304061031341552734e+01 9.391199946403503418e-01 1.325751018524169922e+01 1.130051040649414062e+01 4.904940128326416016e+00 1.144460964202880859e+01 1.990869998931884766e+00 9.783610343933105469e+00 7.838049888610839844e+00 1.362691020965576172e+01 1.404531002044677734e+01 1.360301017761230469e+01 4.068099856376647949e-01 1.305850982666015625e+01 1.110630989074707031e+01 1.133780002593994141e+00 5.726510047912597656e+00 5.078400135040283203e+00 1.239260959625244141e+01 5.093110084533691406e+00 1.370201015472412109e+01 3.741090059280395508e+00 5.925660133361816406e+00 1.426041030883789062e+01 1.522430992126464844e+01 1.425271034240722656e+01 1.913069963455200195e+00 1.364350986480712891e+01 6.481900215148925781e-01 9.117750167846679688e+00 9.874409675598144531e+00 5.725590229034423828e+00 1.189741039276123047e+01 9.448060035705566406e+00 1.172091007232666016e+01 9.285309791564941406e+00 2.279670000076293945e+00 1.102350997924804688e+01 8.333459854125976562e+00 9.866310119628906250e+00 1.060750007629394531e+00 3.691200017929077148e+00 1.425351047515869141e+01 1.344020009040832520e+00 5.555240154266357422e+00 5.289159774780273438e+00 4.168990135192871094e+00 8.806650161743164062e+00 1.333421039581298828e+01 1.218830966949462891e+01 1.215861034393310547e+01 1.296751022338867188e+01 1.469030952453613281e+01 1.213621044158935547e+01 3.094300031661987305e+00 1.130720019340515137e+00 1.528439998626708984e+00 3.725239992141723633e+00 1.466740989685058594e+01 1.540009975433349609e+00 1.038860988616943359e+01 1.280471038818359375e+01 5.377160072326660156e+00 3.387059926986694336e+00 6.004930019378662109e+00 1.188359975814819336e+00 9.689399719238281250e+00 1.083001041412353516e+01 1.189101028442382812e+01 3.987289905548095703e+00 8.421839714050292969e+00 4.999519824981689453e+00 7.742139816284179688e+00 7.467279911041259766e+00 5.898920059204101562e+00 8.474000096321105957e-01 7.778619766235351562e+00 4.638480186462402344e+00 1.022420978546142578e+01 1.411110973358154297e+01 6.015230178833007812e+00 8.271510124206542969e+00 6.344210147857666016e+00 2.950160026550292969e+00 2.189980030059814453e+00 4.069859981536865234e+00 7.187029838562011719e+00 1.125790977478027344e+01 4.914300143718719482e-01 5.922110080718994141e+00 1.303030967712402344e+01 1.328460979461669922e+01 2.607340097427368164e+00 8.677099943161010742e-01 9.758959770202636719e+00 1.031420993804931641e+01 1.099540996551513672e+01 1.418890953063964844e+01 1.089630985260009766e+01 7.494369983673095703e+00 7.910160064697265625e+00 9.553700089454650879e-01 7.801300287246704102e-01 7.891240119934082031e+00 7.939980030059814453e+00 1.046411037445068359e+01 8.674039840698242188e+00 1.052161026000976562e+01 4.386769771575927734e+00 1.091470003128051758e+00 1.368960952758789062e+01 1.471379995346069336e+00 3.786999940872192383e+00 2.814980030059814453e+00 1.040960979461669922e+01 1.366860961914062500e+01 1.207711029052734375e+01 1.073721027374267578e+01 1.518451023101806641e+01 5.637340068817138672e+00 1.754860043525695801e+00 1.341431045532226562e+01 5.772870063781738281e+00 1.484461021423339844e+01 1.175380992889404297e+01 1.167481040954589844e+01 7.035449981689453125e+00 2.781160116195678711e+00 1.269569993019104004e+00 1.391240978240966797e+01 7.084700107574462891e+00 1.118811035156250000e+01 1.438041019439697266e+01 1.266100049018859863e+00 8.027290344238281250e+00 4.077869892120361328e+00 1.323001003265380859e+01 9.642060279846191406e+00 9.930210113525390625e+00 1.261010050773620605e+00 9.201669692993164062e+00 1.665689945220947266e+00 1.142131042480468750e+01 4.622620105743408203e+00 8.166259765625000000e+00 4.347390174865722656e+00 3.620310068130493164e+00 1.406371021270751953e+01 4.518600106239318848e-01 1.042171001434326172e+01 5.086669921875000000e+00 6.742529869079589844e+00 8.075440406799316406e+00 7.197720050811767578e+00 7.278659820556640625e+00 3.587110042572021484e+00 1.389031028747558594e+01 4.348350048065185547e+00 7.673120021820068359e+00 9.669420242309570312e+00 1.009461021423339844e+01 1.265441036224365234e+01 1.116001033782958984e+01 7.156579971313476562e+00 8.433190345764160156e+00 8.690039634704589844e+00 8.643699645996093750e+00 3.492140054702758789e+00 1.463780975341796875e+01 5.145959854125976562e+00 8.279649734497070312e+00 8.490460395812988281e+00 1.019921016693115234e+01 1.340361022949218750e+01 9.830010414123535156e+00 7.473040103912353516e+00 1.374950981140136719e+01 1.214881038665771484e+01 1.255210971832275391e+01 3.661489963531494141e+00 1.173980998992919922e+01 3.739000082015991211e+00 6.752349853515625000e+00 7.598120212554931641e+00 2.198050022125244141e+00 1.087370967864990234e+01 1.309410953521728516e+01 7.876100063323974609e+00 1.266051006317138672e+01 1.306320953369140625e+01 1.381431007385253906e+01 3.127079963684082031e+00 1.106610965728759766e+01 4.190390110015869141e+00 5.258430004119873047e+00 7.634069919586181641e+00 2.177700042724609375e+00 9.527520179748535156e+00 1.386851024627685547e+01 1.425461006164550781e+01 1.386550998687744141e+01 6.123179912567138672e+00 7.821119785308837891e+00 7.194809913635253906e+00 5.633019924163818359e+00 1.055241012573242188e+01 1.449790954589843750e+01 5.962250232696533203e+00 3.633800029754638672e+00 4.925690174102783203e+00 1.852669954299926758e+00 1.463461017608642578e+01 1.278481006622314453e+01 7.173460006713867188e+00 1.090161037445068359e+01 1.429010963439941406e+01 1.195320987701416016e+01 1.159691047668457031e+01 1.353971004486083984e+01 6.663650035858154297e+00 4.951369762420654297e+00 5.659659862518310547e+00 1.522740006446838379e+00 9.560079574584960938e+00 1.316971015930175781e+01 5.944799780845642090e-01 1.006550979614257812e+01 1.052571010589599609e+01 1.502861022949218750e+01 9.110619544982910156e+00 8.663240432739257812e+00 4.491730213165283203e+00 4.870100021362304688e+00 6.793149948120117188e+00 4.427110195159912109e+00 8.870739936828613281e+00 1.196531009674072266e+01 1.363280057907104492e+00 1.031840991973876953e+01 9.707420349121093750e+00 1.377641010284423828e+01 9.719340324401855469e+00 8.033659934997558594e+00 5.694509983062744141e+00 4.334499835968017578e+00 6.053120136260986328e+00 5.652550220489501953e+00 1.050251007080078125e+01 3.583470106124877930e+00 6.434800028800964355e-01 7.076779842376708984e+00 1.429500961303710938e+01 7.411550045013427734e+00 1.131250953674316406e+01 2.559489965438842773e+00 4.631149768829345703e+00 6.183650016784667969e+00 1.183419942855834961e+00 6.514170169830322266e+00 1.031301021575927734e+01 2.023740053176879883e+00 3.296999931335449219e-01 5.460849761962890625e+00 1.424831008911132812e+01 7.416130065917968750e+00 9.822409629821777344e+00 2.655459880828857422e+00 4.781559944152832031e+00 6.797679901123046875e+00 2.707570075988769531e+00 6.205190181732177734e+00 1.073371028900146484e+01 8.097590446472167969e+00 8.349659919738769531e+00 7.271369934082031250e+00 7.126309871673583984e+00 1.457460975646972656e+01 3.726180076599121094e+00 1.503291034698486328e+01 1.368511009216308594e+01 1.441110014915466309e+00 2.380680084228515625e+00 7.443799972534179688e-01 1.040890979766845703e+01 6.955780029296875000e+00 7.373829841613769531e+00 6.248300075531005859e+00 8.170929908752441406e+00 1.402950954437255859e+01 4.777460098266601562e+00 1.407901000976562500e+01 1.387261009216308594e+01 2.117100000381469727e+00 1.166039943695068359e+00 1.065599992871284485e-01 1.520501041412353516e+01 1.032781028747558594e+01 1.371580982208251953e+01 2.086740016937255859e+00 3.135440111160278320e+00 6.123939990997314453e+00 1.345911026000976562e+01 1.493951034545898438e+01 4.314439773559570312e+00 1.090861034393310547e+01 5.330799818038940430e-01 1.232301044464111328e+01 1.369161033630371094e+01 9.912210464477539062e+00 1.341961002349853516e+01 7.086099982261657715e-01 3.868700027465820312e+00 6.064000129699707031e+00 1.122721004486083984e+01 7.545350074768066406e+00 1.042901039123535156e+01 1.348970985412597656e+01 5.530000209808349609e+00 1.113181018829345703e+01 2.747720003128051758e+00 1.160700988769531250e+01 8.488080024719238281e+00 3.379669904708862305e+00 1.879570007324218750e+00 4.711369991302490234e+00 1.038020992279052734e+01 4.714550018310546875e+00 1.194600963592529297e+01 6.783860206604003906e+00 1.653110027313232422e+00 1.484860992431640625e+01 1.849720001220703125e+00 1.271230983734130859e+01 7.757219791412353516e+00 4.465469837188720703e+00 2.650500059127807617e+00 5.392769813537597656e+00 9.609649658203125000e+00 5.857560157775878906e+00 1.256311035156250000e+01 5.532020092010498047e+00 1.932719945907592773e+00 1.384420967102050781e+01 1.648040056228637695e+00 8.549519538879394531e+00 9.755600094795227051e-01 9.050300121307373047e-01 6.340720176696777344e+00 1.123460960388183594e+01 2.041759967803955078e+00 1.049769997596740723e+00 1.099211025238037109e+01 6.458049774169921875e+00 1.093241024017333984e+01 1.243671035766601562e+01 3.757699966430664062e+00 9.599080085754394531e+00 4.379030227661132812e+00 1.455500006675720215e+00 5.836450099945068359e+00 9.805509567260742188e+00 6.175660133361816406e+00 5.809340000152587891e+00 1.296160984039306641e+01 5.931630134582519531e+00 1.074221038818359375e+01 1.103100967407226562e+01 1.231781005859375000e+01 1.459350967407226562e+01 9.352609634399414062e+00 6.467669963836669922e+00 1.040400981903076172e+01 6.647870063781738281e+00 1.922799944877624512e-01 9.372039794921875000e+00 7.339729785919189453e+00 5.106770038604736328e+00 1.501270961761474609e+01 1.023801040649414062e+01 1.351511001586914062e+01 1.428240966796875000e+01 8.339360237121582031e+00 5.478509902954101562e+00 1.049120998382568359e+01 5.465600013732910156e+00 8.422999978065490723e-01 8.268730163574218750e+00 8.056409835815429688e+00 4.545000076293945312e+00 1.430720996856689453e+01 1.157721042633056641e+01 5.115170001983642578e+00 1.234630966186523438e+01 6.537280082702636719e+00 1.012460994720458984e+01 9.908109664916992188e+00 2.035170078277587891e+00 3.226670026779174805e+00 1.456530952453613281e+01 4.165420055389404297e+00 9.460980415344238281e+00 4.963980197906494141e+00 2.610330104827880859e+00 3.610670089721679688e+00 1.268780994415283203e+01 7.105609893798828125e+00 8.516349792480468750e+00 9.418029785156250000e+00 1.577630043029785156e+00 2.522959947586059570e+00 1.473340988159179688e+01 5.613309860229492188e+00 9.164030075073242188e+00 5.964210033416748047e+00 3.863909959793090820e+00 1.381101036071777344e+01 1.312059998512268066e+00 2.432159900665283203e+00 3.432240009307861328e+00 1.256291007995605469e+01 1.270180988311767578e+01 1.392719984054565430e+00 3.983319997787475586e+00 8.230819702148437500e+00 1.074020957946777344e+01 5.777599811553955078e-01 2.430020093917846680e+00 5.960619926452636719e+00 3.852119922637939453e+00 9.048040390014648438e+00 2.434350013732910156e+00 1.236631011962890625e+01 1.157100963592529297e+01 1.821299940347671509e-01 4.769619941711425781e+00 8.746839523315429688e+00 1.079331016540527344e+01 1.523721027374267578e+01 9.900599718093872070e-01 7.267210006713867188e+00 4.526529788970947266e+00 4.183589935302734375e+00 1.893290042877197266e+00 1.528151035308837891e+01 8.945949554443359375e+00 4.208700060844421387e-01 3.327000141143798828e-02 7.778260231018066406e+00 1.413230991363525391e+01 7.860260009765625000e+00 4.247910022735595703e+00 5.694719791412353516e+00 4.530759811401367188e+00 4.431499958038330078e+00 3.161380052566528320e+00 1.470950984954833984e+01 9.988610267639160156e+00 1.217460036277770996e+00 1.338709950447082520e+00 7.268330097198486328e+00 6.700970172882080078e+00 1.483771038055419922e+01 1.523931026458740234e+01 6.919360160827636719e+00 1.453651046752929688e+01 3.541199922561645508e+00 4.300600051879882812e+00 8.157500267028808594e+00 2.593039989471435547e+00 9.671819686889648438e+00 9.874710083007812500e+00 7.630730152130126953e+00 9.744400024414062500e+00 2.140980005264282227e+00 6.853330135345458984e+00 1.491331005096435547e+01 1.176159977912902832e+00 3.385020017623901367e+00 3.133820056915283203e+00 7.965720176696777344e+00 3.703360080718994141e+00 9.562680244445800781e+00 1.048910999298095703e+01 9.106269836425781250e+00 8.836899757385253906e+00 3.493590116500854492e+00 7.176099777221679688e+00 2.817529916763305664e+00 3.610840082168579102e+00 3.272969961166381836e+00 2.240289926528930664e+00 1.117870998382568359e+01 1.514540958404541016e+01 1.329481029510498047e+01 2.269890069961547852e+00 4.483610153198242188e+00 6.387859821319580078e+00 8.913689613342285156e+00 1.564769983291625977e+00 2.474390029907226562e+00 5.041530132293701172e+00 3.628350019454956055e+00 2.202500104904174805e+00 1.245051002502441406e+01 8.761399984359741211e-01 1.318241024017333984e+01 3.781660079956054688e+00 4.625659942626953125e+00 7.350619792938232422e+00 7.703780174255371094e+00 1.405650019645690918e+00 2.616970062255859375e+00 2.253940105438232422e+00 1.134480953216552734e+01 8.556850433349609375e+00 1.521140956878662109e+01 1.261400985717773438e+01 1.283170986175537109e+01 7.701179981231689453e+00 1.216971015930175781e+01 1.036470985412597656e+01 8.104000091552734375e-01 4.253330230712890625e+00 1.095991039276123047e+01 4.005999863147735596e-01 7.667930126190185547e+00 7.604889869689941406e+00 1.276419997215270996e+00 1.284731006622314453e+01 1.159941005706787109e+01 7.975349903106689453e+00 1.298871040344238281e+01 9.423580169677734375e+00 1.499380970001220703e+01 4.036809921264648438e+00 1.042940998077392578e+01 2.545599937438964844e+00 1.330580997467041016e+01 1.198791027069091797e+01 6.690460205078125000e+00 1.528777027130126953e+01 7.844470024108886719e+00 1.570659995079040527e+00 1.557440042495727539e+00 6.346529960632324219e+00 6.489709854125976562e+00 5.798550128936767578e+00 1.055591011047363281e+01 2.627409934997558594e+00 1.172080993652343750e+01 1.141891002655029297e+01 7.814270019531250000e+00 1.027080059051513672e+00 5.718259811401367188e+00 3.446919918060302734e+00 7.504270076751708984e+00 1.187099963426589966e-01 1.094641017913818359e+01 4.355450153350830078e+00 3.639309883117675781e+00 9.621370315551757812e+00 9.434220314025878906e+00 4.492690086364746094e+00 9.946209907531738281e+00 1.229619979858398438e+00 1.296621036529541016e+01 8.220490455627441406e+00 5.225940227508544922e+00 3.836299896240234375e+00 1.488360047340393066e+00 1.436769962310791016e+00 3.535180091857910156e+00 1.070380973815917969e+01 1.047321033477783203e+01 4.226270198822021484e+00 8.689609527587890625e+00 1.771000027656555176e-01 1.740180015563964844e+00 6.726339817047119141e+00 1.457260990142822266e+01 5.264969825744628906e+00 1.458999991416931152e+00 2.221529960632324219e+00 1.075020980834960938e+01 5.615660190582275391e+00 1.257990002632141113e+00 9.139189720153808594e+00 1.227921009063720703e+01 8.462129592895507812e+00 9.807909965515136719e+00 1.534590005874633789e+00 9.727540016174316406e+00 1.215851020812988281e+01 1.399841022491455078e+01 2.976300120353698730e-01 1.152120971679687500e+01 4.839469909667968750e+00 2.271070003509521484e+00 9.848910331726074219e+00 1.341810989379882812e+01 7.714230060577392578e+00 1.205591011047363281e+01 1.476690053939819336e+00 8.032959938049316406e+00 1.128431034088134766e+01 1.414210987091064453e+01 1.431311035156250000e+01 1.412660980224609375e+01 2.420680046081542969e+00 8.687560081481933594e+00 1.507120990753173828e+01 1.398361015319824219e+01 1.254520988464355469e+01 1.322180032730102539e+00 1.373651027679443359e+01 1.052120971679687500e+01 4.038909912109375000e+00 1.162440967559814453e+01 1.476019978523254395e+00 1.413661003112792969e+01 2.510240077972412109e+00 7.097270011901855469e+00 1.357730960845947266e+01 1.371341037750244141e+01 1.259070968627929688e+01 1.780299991369247437e-01 1.269250965118408203e+01 1.103971004486083984e+01 5.567460060119628906e+00 1.186310958862304688e+01 1.386899948120117188e+00 9.899109840393066406e+00 7.396379947662353516e+00 1.445670986175537109e+01 1.375181007385253906e+01 1.270261001586914062e+01 5.768600106239318848e-01 1.327861022949218750e+01 1.073260974884033203e+01 2.194200009107589722e-01 6.375659942626953125e+00 4.666679859161376953e+00 1.175601005554199219e+01 8.790269851684570312e+00 7.883810043334960938e+00 1.347461032867431641e+01 1.418731021881103516e+01 1.367640972137451172e+01 1.467000961303710938e+01 1.345261001586914062e+01 6.417469978332519531e+00 9.813409805297851562e+00 1.236250972747802734e+01 1.382411003112792969e+01 4.105909824371337891e+00 5.269410133361816406e+00 1.321930980682373047e+01 4.586870193481445312e+00 5.413690090179443359e+00 1.479271030426025391e+01 6.056699752807617188e-01 1.364830970764160156e+01 2.396660089492797852e+00 1.298421001434326172e+01 1.408560037612915039e+00 9.758460044860839844e+00 9.742630004882812500e+00 5.072559833526611328e+00 1.289490985870361328e+01 3.127870082855224609e+00 1.451410961151123047e+01 5.813999772071838379e-01 1.055980968475341797e+01 1.416450977325439453e+01 9.626399874687194824e-01 1.334580993652343750e+01 1.091050028800964355e+00 8.292469978332519531e+00 1.008520984649658203e+01 5.494060039520263672e+00 1.198371028900146484e+01 8.514380455017089844e+00 1.224841022491455078e+01 1.006420993804931641e+01 2.100310087203979492e+00 8.877909660339355469e+00 1.571959972381591797e+00 1.104380989074707031e+01 1.898149967193603516e+00 3.119610071182250977e+00 1.425181007385253906e+01 5.332300186157226562e+00 1.266030979156494141e+01 9.903909683227539062e+00 1.231630992889404297e+01 8.906470298767089844e+00 2.993619918823242188e+00 2.921730041503906250e+00 1.031581020355224609e+01 5.475279808044433594e+00 4.019100069999694824e-01 3.049220085144042969e+00 1.396430969238281250e+01 1.778259992599487305e+00 5.757110118865966797e+00 6.155940055847167969e+00 4.176529884338378906e+00 8.078760147094726562e+00 1.259331035614013672e+01 1.311050987243652344e+01 1.179111003875732422e+01 1.331091022491455078e+01 1.515211009979248047e+01 1.284031009674072266e+01 2.589410066604614258e+00 8.814399838447570801e-01 6.369160175323486328e+00 4.945660114288330078e+00 4.729179859161376953e+00 9.465999603271484375e+00 1.287090969085693359e+01 1.156470966339111328e+01 1.155461025238037109e+01 1.347811031341552734e+01 1.415830993652343750e+01 1.276381015777587891e+01 3.647579908370971680e+00 1.504299998283386230e+00 1.480599999427795410e+00 2.847879886627197266e+00 1.547700017690658569e-01 1.749740004539489746e+00 1.097471046447753906e+01 1.275321006774902344e+01 6.227769851684570312e+00 3.869509935379028320e+00 5.982719898223876953e+00 6.842600107192993164e-01 8.851810455322265625e+00 1.757400035858154297e+00 8.895800113677978516e-01 4.120429992675781250e+00 7.891180038452148438e+00 1.078771018981933594e+01 4.992499828338623047e+00 1.372070980072021484e+01 5.217850208282470703e+00 3.072659969329833984e+00 6.932519912719726562e+00 1.060330033302307129e+00 9.999609947204589844e+00 7.963620185852050781e+00 1.398820972442626953e+01 2.616430044174194336e+00 7.975860118865966797e+00 5.602119922637939453e+00 7.129389762878417969e+00 7.449210166931152344e+00 5.047920227050781250e+00 3.188900053501129150e-01 8.305319786071777344e+00 5.354459762573242188e+00 1.062121009826660156e+01 1.001191043853759766e+01 1.143330955505371094e+01 4.229360103607177734e+00 7.862160205841064453e+00 4.739339828491210938e+00 8.491129875183105469e+00 7.935669898986816406e+00 5.645530223846435547e+00 1.700960040092468262e+00 8.421999931335449219e+00 3.908979892730712891e+00 1.032530975341796875e+01 1.330700969696044922e+01 5.632890224456787109e+00 7.865409851074218750e+00 6.436399936676025391e+00 3.284189939498901367e+00 3.142280101776123047e+00 3.161319971084594727e+00 6.730669975280761719e+00 1.119521045684814453e+01 7.766000032424926758e-01 5.045330047607421875e+00 1.323731040954589844e+01 1.399860954284667969e+01 6.944530010223388672e+00 7.824850082397460938e+00 7.098010063171386719e+00 3.432770013809204102e+00 1.840680003166198730e+00 4.726250171661376953e+00 6.380939960479736328e+00 1.133401012420654297e+01 1.499211025238037109e+01 6.017380237579345703e+00 1.360151004791259766e+01 1.353931045532226562e+01 2.285290002822875977e+00 1.527970981597900391e+01 1.038811016082763672e+01 9.499170303344726562e+00 1.090561008453369141e+01 1.418750953674316406e+01 1.093731021881103516e+01 8.475600242614746094e+00 1.393220996856689453e+01 1.120131015777587891e+01 1.526280045509338379e+00 1.233471012115478516e+01 2.598269939422607422e+00 9.650099873542785645e-01 9.231820106506347656e+00 1.034340953826904297e+01 1.175971031188964844e+01 1.322321033477783203e+01 1.094931030273437500e+01 7.192409992218017578e+00 8.740180015563964844e+00 4.556599855422973633e-01 1.087260007858276367e+00 8.864049911499023438e+00 8.011779785156250000e+00 1.044540977478027344e+01 8.515789985656738281e+00 1.040221023559570312e+01 3.478389978408813477e+00 4.505900144577026367e-01 1.376861000061035156e+01 7.399299740791320801e-01 3.497189998626708984e+00 3.589329957962036133e+00 9.881609916687011719e+00 7.662199974060058594e+00 8.641489982604980469e+00 1.115561008453369141e+01 1.043700981140136719e+01 1.281900978088378906e+01 4.094830036163330078e+00 1.534199953079223633e+00 1.457411003112792969e+01 1.471680045127868652e+00 4.332300186157226562e+00 2.340310096740722656e+00 9.738860130310058594e+00 1.308541011810302734e+01 1.190161037445068359e+01 1.149631023406982422e+01 5.020200014114379883e-01 6.346250057220458984e+00 1.941120028495788574e+00 1.414990997314453125e+01 5.827589988708496094e+00 2.123499959707260132e-01 1.148371028900146484e+01 1.160521030426025391e+01 6.123680114746093750e+00 1.337351036071777344e+01 1.283401012420654297e+01 1.027361011505126953e+01 5.926600098609924316e-01 4.913280010223388672e+00 1.721989989280700684e+00 1.322311019897460938e+01 4.828129768371582031e+00 1.478090953826904297e+01 1.093550968170166016e+01 1.121580982208251953e+01 7.554450035095214844e+00 3.141870021820068359e+00 2.083019971847534180e+00 1.409580993652343750e+01 7.531909942626953125e+00 1.033981037139892578e+01 1.448211002349853516e+01 1.325279951095581055e+00 8.520930290222167969e+00 3.217609882354736328e+00 1.406060981750488281e+01 9.245639801025390625e+00 1.009601020812988281e+01 2.141890048980712891e+00 1.374840021133422852e+00 1.308310985565185547e+01 7.674170017242431641e+00 1.189850997924804688e+01 1.490301036834716797e+01 1.045760035514831543e+00 8.779439926147460938e+00 4.691110134124755859e+00 1.326171016693115234e+01 1.053190994262695312e+01 1.034990978240966797e+01 1.187681007385253906e+01 8.854319572448730469e+00 9.963310241699218750e+00 1.054720973968505859e+01 4.319459915161132812e+00 7.947360038757324219e+00 4.371950149536132812e+00 4.295979976654052734e+00 1.476970958709716797e+01 2.812069892883300781e+00 6.510779857635498047e+00 4.478099942207336426e-01 1.890280008316040039e+00 9.949810028076171875e+00 1.692149996757507324e+00 1.194530963897705078e+01 3.859849929809570312e+00 7.758930206298828125e+00 4.429530143737792969e+00 4.233300209045410156e+00 1.332361030578613281e+01 1.520740985870361328e+01 1.064680957794189453e+01 5.784379959106445312e+00