1.706068038940429688e+00 -8.931440114974975586e-01 -3.203229904174804688e-01 -1.271435976028442383e+00 5.441229939460754395e-01 -1.039175033569335938e+00 -2.612080097198486328e+00 -1.048889979720115662e-01 -2.327509969472885132e-01 -9.993550181388854980e-01 -1.574870944023132324e+00 1.131317019462585449e+00 -7.939469814300537109e-01 -2.809160053730010986e-01 -1.356399990618228912e-02 -1.681627035140991211e+00 -7.594680190086364746e-01 -7.070940136909484863e-01 4.689840078353881836e-01 6.292970180511474609e-01 -2.591449916362762451e-01 9.699540138244628906e-01 8.200550079345703125e-01 -7.608169913291931152e-01 4.969519972801208496e-01 2.612270116806030273e-01 1.400452971458435059e+00 -3.764750063419342041e-01 -6.161800026893615723e-01 -1.330299019813537598e+00 4.524709880352020264e-01 2.991859912872314453e-01 1.138396024703979492e+00 1.077221035957336426e+00 1.213919997215270996e+00 -1.955990046262741089e-01 5.865120291709899902e-01 -9.275619983673095703e-01 -6.760889887809753418e-01 5.449240207672119141e-01 4.340780079364776611e-01 -1.586473941802978516e+00 -9.798049926757812500e-01 1.194339036941528320e+00 -3.640669882297515869e-01 -1.050521969795227051e+00 1.587378978729248047e+00 9.552990198135375977e-01 5.521889925003051758e-01 -3.071280121803283691e-01 7.591500133275985718e-02 7.525500059127807617e-01 -5.238350033760070801e-01 1.573520004749298096e-01 3.822279870510101318e-01 -3.388699889183044434e-02 -1.102013945579528809e+00 4.386709928512573242e-01 -6.346970200538635254e-01 6.814700365066528320e-02 3.688789904117584229e-01 1.546265006065368652e+00 4.746949970722198486e-01 2.081351041793823242e+00 -1.461400032043457031e+00 3.276210129261016846e-01 -1.249150991439819336e+00 3.999299928545951843e-02 -1.253653049468994141e+00 -2.625910043716430664e-01 8.740239739418029785e-01 -1.029234051704406738e+00 1.033380985260009766e+00 5.219920277595520020e-01 -9.881599992513656616e-02 -9.444499760866165161e-02 6.181229948997497559e-01 -3.655639886856079102e-01 2.147500030696392059e-02 -8.032099902629852295e-02 2.130510061979293823e-01 -4.917779862880706787e-01 6.137019991874694824e-01 1.334241032600402832e+00 5.721039772033691406e-01 9.422559738159179688e-01 6.600350141525268555e-01 -2.273864984512329102e+00 1.893684029579162598e+00 -6.677910089492797852e-01 7.923489809036254883e-01 -8.850610256195068359e-01 -1.334344029426574707e+00 -1.067489981651306152e+00 6.285179853439331055e-01 1.870609998703002930e+00 -3.504199981689453125e-01 -1.056241035461425781e+00 -7.360090017318725586e-01 -1.327010989189147949e+00 -8.914579749107360840e-01 8.164759874343872070e-01 -1.859609961509704590e+00 -6.627789735794067383e-01 5.715720057487487793e-01 2.755469977855682373e-01 2.120182991027832031e+00 -8.220009803771972656e-01 2.903229892253875732e-01 -5.892480015754699707e-01 -1.801048040390014648e+00 1.975566983222961426e+00 2.123090028762817383e-01 1.929751992225646973e+00 5.483719706535339355e-01 -1.278645992279052734e+00 5.818459987640380859e-01 3.769580125808715820e-01 8.472710251808166504e-01 -6.430460214614868164e-01 -1.313848972320556641e+00 4.536580145359039307e-01 5.354310274124145508e-01 1.612818956375122070e+00 6.615299731492996216e-02 8.453559875488281250e-01 1.205101966857910156e+00 -5.058810114860534668e-01 -1.142882943153381348e+00 -1.707273006439208984e+00 -1.221449971199035645e+00 -7.683889865875244141e-01 1.604315042495727539e+00 2.994880080223083496e-01 6.565000116825103760e-02 -1.030127048492431641e+00 1.199200034141540527e+00 -2.067600004374980927e-02 7.619400024414062500e-01 -2.740429937839508057e-01 -2.268919944763183594e-01 -5.022739768028259277e-01 1.415881991386413574e+00 9.587590098381042480e-01 -5.443739891052246094e-01 2.520950138568878174e-01 4.687260091304779053e-01 -1.390478014945983887e+00 3.743399977684020996e-01 -9.140920042991638184e-01 7.942399978637695312e-01 1.233580946922302246e+00 -9.459189772605895996e-01 3.626739978790283203e-01 6.895059943199157715e-01 2.578197002410888672e+00 -4.633550047874450684e-01 -1.742739975452423096e-01 -8.560399711132049561e-02 9.002019762992858887e-01 -3.236640095710754395e-01 -2.143199928104877472e-02 1.484059989452362061e-01 1.431782960891723633e+00 -5.160700157284736633e-02 -1.324198961257934570e+00 1.484379053115844727e+00 -2.776600122451782227e-01 4.528389871120452881e-01 -5.226460099220275879e-01 3.270649909973144531e-01 5.067530274391174316e-01 1.087463021278381348e+00 1.243558049201965332e+00 -1.173319965600967407e-01 -9.598889946937561035e-01 8.147779703140258789e-01 3.094017028808593750e+00 -1.714372038841247559e+00 3.668720126152038574e-01 1.346750974655151367e+00 7.380380034446716309e-01 -1.035910025238990784e-01 -3.833149969577789307e-01 6.356149911880493164e-01 9.246649742126464844e-01 -4.782389998435974121e-01 -1.056815028190612793e+00 6.081240177154541016e-01 -2.265630066394805908e-01 -1.306421995162963867e+00 -1.541319936513900757e-01 -5.148159861564636230e-01 -1.503880023956298828e-01 2.145977973937988281e+00 -6.196290254592895508e-01 1.889762997627258301e+00 1.253893017768859863e+00 2.909100055694580078e-01 3.713450133800506592e-01 6.440879702568054199e-01 -6.796730160713195801e-01 5.462009906768798828e-01 7.445699721574783325e-02 2.730000019073486328e-01 -9.185899794101715088e-02 -3.246819972991943359e-01 1.496639996767044067e-01 -2.254420071840286255e-01 2.320320010185241699e-01 -5.137000083923339844e-01 1.397940069437026978e-01 -5.364469885826110840e-01 6.162210106849670410e-01 -2.138970047235488892e-01 5.528299808502197266e-01 -2.291063070297241211e+00 -1.393709927797317505e-01 -1.983451008796691895e+00 -9.753869771957397461e-01 8.845859766006469727e-01 1.105298995971679688e+00 -1.557476997375488281e+00 -7.947949767112731934e-01 2.418061017990112305e+00 1.362326025962829590e+00 -1.247199997305870056e-01 -4.810009896755218506e-01 -6.730009913444519043e-01 3.146300092339515686e-02 7.211620211601257324e-01 -1.038681983947753906e+00 -1.706771016120910645e+00 -1.143520951271057129e+00 -2.107599973678588867e-01 -6.245149970054626465e-01 4.883590042591094971e-01 -4.275000095367431641e-02 8.671820163726806641e-01 -9.672480225563049316e-01 -1.783087015151977539e+00 6.795179843902587891e-01 -1.874122023582458496e+00 3.564380109310150146e-01 1.312273979187011719e+00 -2.294773101806640625e+00 9.428000077605247498e-03 -3.163800016045570374e-02 -1.903049945831298828e+00 7.514129877090454102e-01 1.140647053718566895e+00 3.065199963748455048e-02 1.848070025444030762e-01 -1.410441994667053223e+00 1.388649940490722656e-01 -8.046669960021972656e-01 2.328059971332550049e-01 9.222769737243652344e-01 -1.027907013893127441e+00 -3.812899887561798096e-01 -9.380599856376647949e-01 -9.200000204145908356e-03 1.370149016380310059e+00 -4.083510041236877441e-01 5.492280125617980957e-01 -8.102049827575683594e-01 4.734829962253570557e-01 -1.050369963049888611e-01 -1.925868988037109375e+00 1.287217974662780762e+00 -1.630450040102005005e-01 -7.190250158309936523e-01 8.038219809532165527e-01 2.050910949707031250e+00 -8.065360188484191895e-01 6.805329918861389160e-01 -4.387640058994293213e-01 1.290639936923980713e-01 6.457699835300445557e-02 1.488589942455291748e-01 -8.310920000076293945e-01 -5.713930130004882812e-01 2.028717994689941406e+00 -1.443850040435791016e+00 1.208464026451110840e+00 -4.457100108265876770e-02 5.995510220527648926e-01 1.409409940242767334e-01 -5.310670137405395508e-01 8.758190274238586426e-01 -7.912000268697738647e-02 4.246810078620910645e-01 -2.128069996833801270e-01 6.662449836730957031e-01 -3.350700065493583679e-02 -1.032783985137939453e+00 1.039989963173866272e-01 2.485290020704269409e-01 -2.395679950714111328e-01 4.814729988574981689e-01 1.964749991893768311e-01 2.613023042678833008e+00 5.259090065956115723e-01 1.554360985755920410e+00 -1.178761005401611328e+00 -1.080560013651847839e-01 -2.901999978348612785e-03 2.281299978494644165e-01 1.083098053932189941e+00 -5.534459948539733887e-01 -5.660539865493774414e-01 4.578959941864013672e-01 -1.033059000968933105e+00 2.394328117370605469e+00 -1.844601988792419434e+00 2.705790102481842041e-01 -3.154090046882629395e-01 -1.604910045862197876e-01 8.795589804649353027e-01 -2.499484062194824219e+00 2.219360023736953735e-01 -4.961250126361846924e-01 2.284614086151123047e+00 -2.720119953155517578e-01 1.063704967498779297e+00 4.278720021247863770e-01 9.411569833755493164e-01 2.007468938827514648e+00 -4.412379860877990723e-01 -2.555737972259521484e+00 2.011899948120117188e-01 4.299220144748687744e-01 -2.765060067176818848e-01 9.884070158004760742e-01 -2.238010019063949585e-01 1.227520942687988281e+00 -1.258469969034194946e-01 9.862480163574218750e-01 9.972469806671142578e-01 5.588600039482116699e-02 1.218549981713294983e-01 3.976610898971557617e+00 1.585157036781311035e+00 8.315520286560058594e-01 7.730600237846374512e-02 3.169580101966857910e-01 6.500989794731140137e-01 -9.926270246505737305e-01 1.896754026412963867e+00 -1.990944981575012207e+00 8.411669731140136719e-01 7.824360132217407227e-01 -1.780640959739685059e+00 -1.198090016841888428e-01 5.184479951858520508e-01 4.524739980697631836e-01 -2.679719924926757812e-01 -1.117545008659362793e+00 -1.246003031730651855e+00 1.743733048439025879e+00 -2.417428970336914062e+00 -3.997695922851562500e+00 -4.932369887828826904e-01 8.145390152931213379e-01 2.402467012405395508e+00 9.594889879226684570e-01 4.902699962258338928e-02 2.004719972610473633e-01 3.084470033645629883e-01 -2.329919099807739258e+00 6.920369863510131836e-01 -5.623270273208618164e-01 5.509449839591979980e-01 -9.576900005340576172e-01 -5.987780094146728516e-01 1.947131991386413574e+00 -1.038315057754516602e+00 -7.443490028381347656e-01 -8.371449708938598633e-01 -2.623470127582550049e-01 6.069970130920410156e-01 2.413255929946899414e+00 -1.433972001075744629e+00 -2.323793888092041016e+00 -1.153770014643669128e-01 5.354520082473754883e-01 1.024054050445556641e+00 -3.960200026631355286e-02 -2.431399933993816376e-02 3.889459967613220215e-01 -1.496060043573379517e-01 -4.439829885959625244e-01 8.436939716339111328e-01 1.318191051483154297e+00 1.150810956954956055e+00 -7.753570079803466797e-01 -7.556549906730651855e-01 6.310729980468750000e-01 -7.051090002059936523e-01 1.280704021453857422e+00 -7.831130027770996094e-01 5.203660130500793457e-01 2.031486988067626953e+00 7.187290191650390625e-01 -7.050870060920715332e-01 -4.225960075855255127e-01 3.232040107250213623e-01 -4.855439960956573486e-01 2.247119992971420288e-01 1.852869987487792969e-01 -3.691110014915466309e-01 1.306316971778869629e+00 3.200440108776092529e-01 4.371159970760345459e-01 -2.480590045452117920e-01 -5.041030049324035645e-01 3.487200140953063965e-01 -7.611050009727478027e-01 -5.619670152664184570e-01 4.615299999713897705e-01 4.081949889659881592e-01 -3.042820096015930176e-01 3.406920135021209717e-01 2.539040148258209229e-01 2.775039970874786377e-01 3.474160134792327881e-01 -1.815109997987747192e-01 -6.110199913382530212e-02 4.086999967694282532e-02 2.456600032746791840e-02 -2.451110035181045532e-01 -1.946280002593994141e-01 -7.057160139083862305e-01 -9.822300076484680176e-02 -9.798930287361145020e-01 1.396169960498809814e-01 -1.567649990320205688e-01 -4.547089934349060059e-01 -1.780810058116912842e-01 5.540519952774047852e-01 -1.723142981529235840e+00 -6.327289938926696777e-01 -4.591119885444641113e-01 3.445979952812194824e-01 -7.640600204467773438e-02 -4.501760005950927734e-01 -2.671639919281005859e-01 3.761560022830963135e-01 1.044849991798400879e+00 9.268220067024230957e-01 6.041200086474418640e-02 -2.184489965438842773e-01 -9.600999951362609863e-02 -3.661200106143951416e-01 -4.739559888839721680e-01 -7.346439957618713379e-01 -5.987759828567504883e-01 -1.371390074491500854e-01 6.881819963455200195e-01 -2.648119926452636719e-01 -1.685709953308105469e-01 1.608672022819519043e+00 3.324350118637084961e-01 -8.452529907226562500e-01 -5.060100182890892029e-02 -1.142719984054565430e-01 -2.777720093727111816e-01 -5.202180147171020508e-01 1.109419986605644226e-01 7.333289980888366699e-01 -5.622899904847145081e-02 -1.975200027227401733e-01 -2.448240071535110474e-01 8.337599784135818481e-02 6.041430234909057617e-01 -3.097850084304809570e-01 6.050980091094970703e-01 3.945409953594207764e-01 -8.867329955101013184e-01 -2.201859951019287109e-01 -3.503029942512512207e-01 -4.161210060119628906e-01 -5.134980082511901855e-01 -1.071635007858276367e+00 7.970970273017883301e-01 2.389580011367797852e-01 8.007360100746154785e-01 3.250040113925933838e-01 2.792000025510787964e-02 8.446200191974639893e-02 1.491217970848083496e+00 7.394299656152725220e-02 -3.193509876728057861e-01 6.073290109634399414e-01 1.886480003595352173e-01 6.562669873237609863e-01 8.732700347900390625e-02 -4.324910044670104980e-01 -1.322203993797302246e+00 5.160329937934875488e-01 1.042029976844787598e+00 -3.263829946517944336e-01 -1.213812947273254395e+00 -3.679159879684448242e-01 -2.089830040931701660e-01 -2.610340118408203125e-01 -6.795750260353088379e-01 -8.830329775810241699e-01 -9.887999854981899261e-03 -4.801940023899078369e-01 -8.668559789657592773e-01 5.831670165061950684e-01 -3.554590046405792236e-01 1.962579935789108276e-01 -9.562739729881286621e-01 6.323660016059875488e-01 -1.614129990339279175e-01 -1.494433045387268066e+00 -6.732999812811613083e-03 -1.176223993301391602e+00 1.001054048538208008e+00 2.751879990100860596e-01 2.237323999404907227e+00 -6.758189797401428223e-01 1.398419022560119629e+00 -7.757800072431564331e-02 9.790699928998947144e-02 5.767070055007934570e-01 -7.970039844512939453e-01 2.027290016412734985e-01 4.908489882946014404e-01 -2.442090064287185669e-01 -1.249630004167556763e-01 -1.245390027761459351e-01 -2.171999961137771606e-01 -2.948899865150451660e-01 -6.326850056648254395e-01 2.530309855937957764e-01 -2.824980020523071289e-01 4.397670030593872070e-01 -4.477899968624114990e-01 -1.015082001686096191e+00 -5.026670098304748535e-01 7.793380022048950195e-01 -8.346869945526123047e-01 4.113419950008392334e-01 -6.279700249433517456e-02 -5.075000226497650146e-03 -3.902840018272399902e-01 -2.250799909234046936e-02 -8.121799677610397339e-02 -3.209860026836395264e-01 -7.569900155067443848e-01 -3.004789948463439941e-01 -6.372929811477661133e-01 -3.490540087223052979e-01 -1.627737045288085938e+00 -3.576599955558776855e-01 -2.039220035076141357e-01 2.637059986591339111e-01 -1.196950003504753113e-01 -2.681410014629364014e-01 -2.195930033922195435e-01 -1.841220974922180176e+00 -1.416860073804855347e-01 -5.424630045890808105e-01 2.652000077068805695e-02 2.572047948837280273e+00 -4.244650006294250488e-01 1.180634021759033203e+00 -4.614729881286621094e-01 7.997620105743408203e-01 1.525881052017211914e+00 1.419347047805786133e+00 -4.179799929261207581e-02 -4.077100008726119995e-02 -5.388889908790588379e-01 7.200019955635070801e-01 9.569069743156433105e-01 1.237071037292480469e+00 3.576569855213165283e-01 -9.900590181350708008e-01 -4.776439964771270752e-01 -1.534911990165710449e+00 -3.916400074958801270e-01 -2.177709937095642090e-01 -1.064334988594055176e+00 7.258000224828720093e-02 4.433810114860534668e-01 1.000272035598754883e+00 6.419789791107177734e-01 2.140810042619705200e-01 3.431049883365631104e-01 6.656699776649475098e-01 -4.451520144939422607e-01 -1.102453947067260742e+00 -1.218134045600891113e+00 1.823610067367553711e-01 -1.104946017265319824e+00 5.457379817962646484e-01 2.276560068130493164e-01 1.121919974684715271e-01 -4.554399847984313965e-02 -1.967550069093704224e-01 4.241439998149871826e-01 -8.104479908943176270e-01 -5.965430140495300293e-01 8.998640179634094238e-01 -8.855800330638885498e-02 4.560000088531523943e-04 -6.627380251884460449e-01 8.243610262870788574e-01 -3.043519854545593262e-01 3.531830012798309326e-01 1.910030961036682129e+00 -1.609990954399108887e+00 -5.332599878311157227e-01 -6.167320013046264648e-01 -3.041099905967712402e-01 2.429299987852573395e-02 -6.909199953079223633e-01 -3.931099921464920044e-02 3.694099932909011841e-02 1.566489934921264648e-01 1.075830012559890747e-01 -7.843070030212402344e-01 -3.979269862174987793e-01 -1.664677023887634277e+00 1.779500022530555725e-02 -8.563299775123596191e-01 -2.856419980525970459e-01 3.063580095767974854e-01 9.716659784317016602e-01 6.689069867134094238e-01 3.440580070018768311e-01 7.236809730529785156e-01 1.199051022529602051e+00 -3.063929975032806396e-01 -4.690690040588378906e-01 6.241660118103027344e-01 6.118450164794921875e-01 6.107600033283233643e-02 6.541399657726287842e-02 -4.022180140018463135e-01 4.785189926624298096e-01 8.470299839973449707e-01 8.591099977493286133e-01 6.719930171966552734e-01 -1.094030976295471191e+00 2.018570005893707275e-01 -7.735149860382080078e-01 1.817889958620071411e-01 -3.831740021705627441e-01 -2.813540101051330566e-01 -4.309020042419433594e-01 1.081909984350204468e-01 4.188030064105987549e-01 -4.418100044131278992e-02 -6.805100291967391968e-02 -1.212989985942840576e-01 -5.229499936103820801e-01 1.268250048160552979e-01 -9.870359897613525391e-01 5.373110175132751465e-01 -9.133750200271606445e-01 7.508469820022583008e-01 -5.043650269508361816e-01 2.932220101356506348e-01 -2.268999963998794556e-01 5.997930169105529785e-01 -1.423328995704650879e+00 -9.344490170478820801e-01 2.978110015392303467e-01 4.206779897212982178e-01 -2.330500073730945587e-02 1.012989044189453125e+00 4.963799938559532166e-02 1.231313943862915039e+00 -8.828529715538024902e-01 -2.822180092334747314e-01 -4.827930033206939697e-01 -3.189769983291625977e-01 2.161300033330917358e-01 -1.757369935512542725e-01 1.119513034820556641e+00 -2.011729925870895386e-01 2.088630050420761108e-01 5.919600129127502441e-01 -3.066059947013854980e-01 -1.675879955291748047e-01 -1.461769938468933105e-01 -8.693720102310180664e-01 6.553599834442138672e-01 7.867500185966491699e-01 5.014099925756454468e-02 -2.347580045461654663e-01 -8.965499699115753174e-02 1.095869988203048706e-01 3.491399884223937988e-01 -5.432819724082946777e-01 4.184409976005554199e-01 2.316800057888031006e-01 -1.449950039386749268e-01 -1.810047984123229980e+00 -3.259010016918182373e-01 8.028039932250976562e-01 -3.937729895114898682e-01 1.026536941528320312e+00 -6.751629710197448730e-01 -3.020510077476501465e-01 1.103466033935546875e+00 -6.548659801483154297e-01 -3.082830011844635010e-01 -1.414459943771362305e-01 4.120999947190284729e-03 -7.019479870796203613e-01 7.121199965476989746e-01 4.228740036487579346e-01 -9.305239915847778320e-01 -9.285870194435119629e-01 -3.343699872493743896e-01 4.472869932651519775e-01 -1.199809983372688293e-01 -4.126259982585906982e-01 -1.515370011329650879e-01 -6.880829930305480957e-01 2.535749971866607666e-01 -2.362910062074661255e-01 -2.743380069732666016e-01 -3.296875953674316406e+00 7.471500039100646973e-01 -5.482220053672790527e-01 -4.442049860954284668e-01 -5.251000169664621353e-03 2.291609942913055420e-01 -1.991299986839294434e-01 -8.219050168991088867e-01 -1.684979945421218872e-01 -8.466900140047073364e-02 1.162263989448547363e+00 -5.714480280876159668e-01 -2.965700030326843262e-01 8.685799688100814819e-02 4.609499871730804443e-02 1.400562047958374023e+00 1.767086029052734375e+00 -3.370220065116882324e-01 -2.163839936256408691e-01 8.403490185737609863e-01 -3.493179976940155029e-01 2.152840048074722290e-01 3.578070104122161865e-01 -3.771199882030487061e-01 6.267780065536499023e-01 1.205696940422058105e+00 4.660010039806365967e-01 9.736599773168563843e-02 -5.348529815673828125e-01 -1.690379977226257324e-01 5.984479784965515137e-01 -1.376119017601013184e+00 -1.018162965774536133e+00 4.463610053062438965e-01 8.066430091857910156e-01 -2.550750076770782471e-01 -5.207070112228393555e-01 -6.998040080070495605e-01 -2.037799917161464691e-02 1.416216015815734863e+00 9.484779834747314453e-01 -1.136095046997070312e+00 8.328340053558349609e-01 -2.089499980211257935e-01 -6.384299695491790771e-02 -6.036900281906127930e-01 -4.141240119934082031e-01 -6.095179915428161621e-01 5.947380065917968750e-01 -1.499979943037033081e-01 -2.574220001697540283e-01 -9.717350006103515625e-01 -4.951089918613433838e-01 -1.364954948425292969e+00 -2.421000003814697266e-01 -1.353651046752929688e+00 -8.679649829864501953e-01 -2.248899936676025391e-01 -4.115220010280609131e-01 6.340190172195434570e-01 -1.632290035486221313e-01 7.790570259094238281e-01 -1.121920943260192871e+00 -2.395139932632446289e-01 -4.179550111293792725e-01 -6.465610265731811523e-01 1.593170017004013062e-01 -6.598460078239440918e-01 -2.888160049915313721e-01 2.118410021066665649e-01 -6.226699948310852051e-01 -2.182007074356079102e+00 2.615840137004852295e-01 1.042620018124580383e-01 2.746289968490600586e-01 -4.425000026822090149e-02 6.094639897346496582e-01 7.781090140342712402e-01 5.625199899077415466e-02 4.638490080833435059e-01 -9.873899817466735840e-02 2.217810004949569702e-01 1.319900006055831909e-01 4.803099930286407471e-01 -9.389500021934509277e-01 -1.983689963817596436e-01 -1.105273008346557617e+00 1.720550060272216797e-01 -3.998399898409843445e-02 -1.412460058927536011e-01 -3.827460110187530518e-01 -6.286219954490661621e-01 -2.875170111656188965e-01 6.070380210876464844e-01 -1.635899990797042847e-01 -8.304719924926757812e-01 -8.925439715385437012e-01 -3.316609859466552734e-01 -1.812620013952255249e-01 2.478157997131347656e+00 1.117789968848228455e-01 2.013495922088623047e+00 3.456340134143829346e-01 3.652299940586090088e-01 -5.584120154380798340e-01 -1.384922027587890625e+00 -1.818750053644180298e-01 3.265149891376495361e-01 -4.841949939727783203e-01 2.865059971809387207e-01 5.476999878883361816e-01 1.512430012226104736e-01 -2.799949944019317627e-01 -2.158879935741424561e-01 3.822660148143768311e-01 3.806020021438598633e-01 8.606400340795516968e-02 -4.972099885344505310e-02 6.329140067100524902e-01 -3.405699878931045532e-02 3.187659978866577148e-01 -6.941600143909454346e-02 3.520289957523345947e-01 3.423900008201599121e-01 8.946199715137481689e-02 -4.505980014801025391e-01 7.741039991378784180e-01 1.648795008659362793e+00 1.155735969543457031e+00 1.887900009751319885e-02 -6.825099885463714600e-02 -2.862890064716339111e-01 -2.254280000925064087e-01 -3.399760127067565918e-01 2.319239974021911621e-01 5.673149824142456055e-01 -6.882060170173645020e-01 1.771363973617553711e+00 -5.082479715347290039e-01 -9.215660095214843750e-01 1.649580001831054688e-01 -6.105000153183937073e-02 1.503240019083023071e-01 9.286410212516784668e-01 -1.763209998607635498e-01 6.958490014076232910e-01 5.049999952316284180e-01 1.062523961067199707e+00 -8.493100106716156006e-02 7.335200160741806030e-02 -4.428319931030273438e-01 8.657500147819519043e-02 1.494644045829772949e+00 3.823690116405487061e-01 -4.287079870700836182e-01 -3.849860131740570068e-01 1.781069934368133545e-01 2.743319869041442871e-01 2.591379880905151367e-01 -2.576619982719421387e-01 6.465179920196533203e-01 -3.074460029602050781e-01 -1.850840002298355103e-01 -4.095019996166229248e-01 -2.946049869060516357e-01 1.008883953094482422e+00 -1.812749952077865601e-01 7.790439724922180176e-01 -4.265240132808685303e-01 -4.961819946765899658e-01 3.696449995040893555e-01 -2.495449930429458618e-01 8.073099851608276367e-01 2.780869901180267334e-01 -3.300839960575103760e-01 5.525010228157043457e-01 -3.922330141067504883e-01 1.886419951915740967e-01 4.888150095939636230e-01 4.228070080280303955e-01 4.159469902515411377e-01 -1.173014044761657715e+00 5.237309932708740234e-01 -1.820369958877563477e-01 1.182340011000633240e-01 -6.437899917364120483e-02 5.136989951133728027e-01 1.520344972610473633e+00 -1.212815046310424805e+00 1.038562059402465820e+00 1.050726056098937988e+00 -1.276597976684570312e+00 -1.309263944625854492e+00 1.471253037452697754e+00 -1.931519955396652222e-01 -2.530170083045959473e-01 6.692249774932861328e-01 4.728500172495841980e-02 -1.011548042297363281e+00 -3.186509907245635986e-01 -2.340620011091232300e-01 4.489599913358688354e-02 3.197979927062988281e-01 1.598339974880218506e-01 -1.037158012390136719e+00 -7.473189830780029297e-01 -3.556529879570007324e-01 -1.098119989037513733e-01 2.861059904098510742e-01 -6.188769936561584473e-01 -3.525339961051940918e-01 7.162020206451416016e-01 9.671139717102050781e-01 -1.797628998756408691e+00 5.816119909286499023e-01 -2.972559928894042969e-01 7.420229911804199219e-01 -3.539949953556060791e-01 -2.075809985399246216e-01 8.417019844055175781e-01 -3.998529911041259766e-01 5.540840029716491699e-01 2.832099981606006622e-02 3.395169973373413086e-01 7.120899856090545654e-02 -8.410300314426422119e-02 5.630919933319091797e-01 -5.678009986877441406e-01 -3.690440058708190918e-01 -3.652830123901367188e-01 2.527419924736022949e-01 5.112899839878082275e-02 4.302690029144287109e-01 -1.626386046409606934e+00 -1.729100048542022705e-01 6.446699798107147217e-02 -5.081130266189575195e-01 3.754149973392486572e-01 2.305510044097900391e-01 -1.641360074281692505e-01 4.472349882125854492e-01 -1.682569980621337891e-01 -7.274129986763000488e-01 -2.435330003499984741e-01 -8.401939868927001953e-01 1.090330004692077637e+00 3.571889996528625488e-01 -4.941659867763519287e-01 -1.603018999099731445e+00 -1.301729977130889893e-01 6.381340026855468750e-01 -1.574150025844573975e-01 -5.509449839591979980e-01 1.663340032100677490e-01 1.066199969500303268e-02 5.538899898529052734e-01 -1.214750036597251892e-01 -3.366230130195617676e-01 -7.621999979019165039e-01 4.422810077667236328e-01 -3.912569880485534668e-01 1.194389984011650085e-01 2.748090028762817383e-01 -4.300779998302459717e-01 1.378269940614700317e-01 5.100799798965454102e-01 1.004960015416145325e-01 -7.420300245285034180e-01 -1.156496047973632812e+00 1.498679965734481812e-01 -2.243019938468933105e-01 5.624859929084777832e-01 5.383840203285217285e-01 -3.638170063495635986e-01 7.687820196151733398e-01 -4.050329923629760742e-01 -1.666099950671195984e-02 -6.104660034179687500e-01 -1.852460056543350220e-01 -1.984899938106536865e-01 -7.193930149078369141e-01 3.738369941711425781e-01 -5.052940249443054199e-01 -3.224819898605346680e-01 3.167850077152252197e-01 3.413900136947631836e-01 6.409000158309936523e-01 -3.453019857406616211e-01 7.408339977264404297e-01 -1.847486972808837891e+00 4.486210048198699951e-01 1.237907052040100098e+00 -1.593310952186584473e+00 1.034767031669616699e+00 2.282460033893585205e-01 1.429660022258758545e-01 -8.826839923858642578e-01 -1.083804011344909668e+00 1.456081032752990723e+00 3.015390038490295410e-01 -2.017090022563934326e-01 9.185100346803665161e-02 -3.628889918327331543e-01 -1.453710049390792847e-01 -3.682120144367218018e-01 -6.679949760437011719e-01 -1.312765955924987793e+00 1.107900977134704590e+00 4.948129951953887939e-01 -3.442629873752593994e-01 -3.839820027351379395e-01 -4.567059874534606934e-01 6.591870188713073730e-01 3.969999961555004120e-04 1.007011055946350098e+00 -6.992899775505065918e-01 -2.422939985990524292e-01 -2.651470005512237549e-01 -9.520109891891479492e-01 -2.208819985389709473e-01 1.938977956771850586e+00 4.377320110797882080e-01 2.244980037212371826e-01 7.517309784889221191e-01 -7.856079936027526855e-01 6.779659986495971680e-01 -6.918770074844360352e-01 -5.222899839282035828e-02 -8.844199776649475098e-02 -2.416509985923767090e-01 -1.127807021141052246e+00 2.711299993097782135e-02 -2.550435066223144531e+00 -8.967180252075195312e-01 -8.006999641656875610e-02 -1.482000015676021576e-02 -2.393399924039840698e-02 -2.067369967699050903e-01 3.591940104961395264e-01 -1.549589931964874268e-01 -9.076589941978454590e-01 -1.133638024330139160e+00 1.004585981369018555e+00 -1.041522026062011719e+00 -4.510119855403900146e-01 -3.312189877033233643e-01 -5.090500116348266602e-01 2.584010064601898193e-01 1.136230006814002991e-01 3.259800001978874207e-02 6.460310220718383789e-01 -9.355959892272949219e-01 4.679610133171081543e-01 4.961529970169067383e-01 3.008770048618316650e-01 1.337471008300781250e+00 1.233820021152496338e-01 -2.669999897480010986e-01 -1.602970063686370850e-01 2.989329993724822998e-01 -3.532460033893585205e-01 -1.049989983439445496e-01 -1.544471979141235352e+00 -1.121693968772888184e+00 2.148426055908203125e+00 -1.274458050727844238e+00 -1.115120053291320801e+00 4.278489947319030762e-01 3.102999925613403320e-02 -6.531500071287155151e-02 -4.038749933242797852e-01 1.061659976840019226e-01 1.491559982299804688e+00 1.148056983947753906e+00 -7.692660093307495117e-01 2.405379056930541992e+00 3.620810985565185547e+00 3.513549864292144775e-01 5.416340231895446777e-01 -3.461199998855590820e-02 1.649429947137832642e-01 -4.107910096645355225e-01 -6.237399950623512268e-02 -7.037410140037536621e-01 2.275985002517700195e+00 -9.681940078735351562e-01 3.508299887180328369e-01 1.151589989662170410e+00 2.342100068926811218e-02 1.108789965510368347e-01 -1.333150982856750488e+00 -1.884747982025146484e+00 -8.882150053977966309e-01 -1.041840016841888428e-01 -1.105320006608963013e-01 1.416600048542022705e-01 1.495369970798492432e-01 3.424299880862236023e-02 -2.341649979352951050e-01 7.900120019912719727e-01 2.980149984359741211e-01 -1.884540021419525146e-01 -1.443878054618835449e+00 1.842429935932159424e-01 -8.009699732065200806e-02 -9.918999858200550079e-03 -3.424510061740875244e-01 1.097802996635437012e+00 3.538140058517456055e-01 -3.538349866867065430e-01 -1.011049970984458923e-01 -1.536529958248138428e-01 2.075359970331192017e-01 -3.093099892139434814e-01 -2.379889935255050659e-01 1.001238942146301270e+00 7.865700125694274902e-01 4.953089952468872070e-01 -9.271500259637832642e-02 -1.216495037078857422e+00 -2.047662973403930664e+00 8.658260107040405273e-01 3.255179882049560547e+00