20.833559581615003 0.0 0.0 0.0 20.833559581615003 0.0 0.0 0.0 20.833559581615003
20.899773408987443 0.0 0.0 0.0 20.899773408987443 0.0 0.0 0.0 20.899773408987443
20.83317381143011 0.0 0.0 0.0 20.83317381143011 0.0 0.0 0.0 20.83317381143011
20.87809354793841 0.0 0.0 0.0 20.87809354793841 0.0 0.0 0.0 20.87809354793841
20.871358709607694 0.0 0.0 0.0 20.871358709607694 0.0 0.0 0.0 20.871358709607694
20.831052340001822 0.0 0.0 0.0 20.831052340001822 0.0 0.0 0.0 20.831052340001822
20.976466003439704 0.0 0.0 0.0 20.976466003439704 0.0 0.0 0.0 20.976466003439704
20.936930115849197 0.0 0.0 0.0 20.936930115849197 0.0 0.0 0.0 20.936930115849197
20.873307669266058 0.0 0.0 0.0 20.873307669266058 0.0 0.0 0.0 20.873307669266058
20.894209639818815 0.0 0.0 0.0 20.894209639818815 0.0 0.0 0.0 20.894209639818815
20.833559581615003 0.0 0.0 0.0 20.833559581615003 0.0 0.0 0.0 20.833559581615003
20.758202101259414 0.0 0.0 0.0 20.758202101259414 0.0 0.0 0.0 20.758202101259414
20.84603070088427 0.0 0.0 0.0 20.84603070088427 0.0 0.0 0.0 20.84603070088427
20.79959328414241 0.0 0.0 0.0 20.79959328414241 0.0 0.0 0.0 20.79959328414241
20.813896414906996 0.0 0.0 0.0 20.813896414906996 0.0 0.0 0.0 20.813896414906996
20.806004266021613 0.0 0.0 0.0 20.806004266021613 0.0 0.0 0.0 20.806004266021613
20.868433947177124 0.0 0.0 0.0 20.868433947177124 0.0 0.0 0.0 20.868433947177124
20.953702916645174 0.0 0.0 0.0 20.953702916645174 0.0 0.0 0.0 20.953702916645174
20.90448308614179 0.0 0.0 0.0 20.90448308614179 0.0 0.0 0.0 20.90448308614179
20.893095192618024 0.0 0.0 0.0 20.893095192618024 0.0 0.0 0.0 20.893095192618024
20.858101233006813 0.0 0.0 0.0 20.858101233006813 0.0 0.0 0.0 20.858101233006813
20.861899667008373 0.0 0.0 0.0 20.861899667008373 0.0 0.0 0.0 20.861899667008373
20.81268724498591 0.0 0.0 0.0 20.81268724498591 0.0 0.0 0.0 20.81268724498591
20.84499563026473 0.0 0.0 0.0 20.84499563026473 0.0 0.0 0.0 20.84499563026473
20.752309713044397 0.0 0.0 0.0 20.752309713044397 0.0 0.0 0.0 20.752309713044397
20.767458998165143 0.0 0.0 0.0 20.767458998165143 0.0 0.0 0.0 20.767458998165143
20.89709524313597 0.0 0.0 0.0 20.89709524313597 0.0 0.0 0.0 20.89709524313597
20.833198153581694 0.0 0.0 0.0 20.833198153581694 0.0 0.0 0.0 20.833198153581694
20.833777073447635 0.0 0.0 0.0 20.833777073447635 0.0 0.0 0.0 20.833777073447635
20.758343391574044 0.0 0.0 0.0 20.758343391574044 0.0 0.0 0.0 20.758343391574044
20.93094141738226 0.0 0.0 0.0 20.93094141738226 0.0 0.0 0.0 20.93094141738226
20.66652003320333 0.0 0.0 0.0 20.66652003320333 0.0 0.0 0.0 20.66652003320333
20.661577518077305 0.0 0.0 0.0 20.661577518077305 0.0 0.0 0.0 20.661577518077305
20.932388717047107 0.0 0.0 0.0 20.932388717047107 0.0 0.0 0.0 20.932388717047107
20.727532577794864 0.0 0.0 0.0 20.727532577794864 0.0 0.0 0.0 20.727532577794864
20.671304324344053 0.0 0.0 0.0 20.671304324344053 0.0 0.0 0.0 20.671304324344053
20.72068925813644 0.0 0.0 0.0 20.72068925813644 0.0 0.0 0.0 20.72068925813644
20.66652003320333 0.0 0.0 0.0 20.66652003320333 0.0 0.0 0.0 20.66652003320333
20.584939428877504 0.0 0.0 0.0 20.584939428877504 0.0 0.0 0.0 20.584939428877504
20.703300495069943 0.0 0.0 0.0 20.703300495069943 0.0 0.0 0.0 20.703300495069943
20.73972217478929 0.0 0.0 0.0 20.73972217478929 0.0 0.0 0.0 20.73972217478929
20.631934598396967 0.0 0.0 0.0 20.631934598396967 0.0 0.0 0.0 20.631934598396967
20.6655934439115 0.0 0.0 0.0 20.6655934439115 0.0 0.0 0.0 20.6655934439115
20.838150193897466 0.0 0.0 0.0 20.838150193897466 0.0 0.0 0.0 20.838150193897466
20.407098315288923 0.0 0.0 0.0 20.407098315288923 0.0 0.0 0.0 20.407098315288923
20.636072764166293 0.0 0.0 0.0 20.636072764166293 0.0 0.0 0.0 20.636072764166293
20.679183772976437 0.0 0.0 0.0 20.679183772976437 0.0 0.0 0.0 20.679183772976437
20.85822982306844 0.0 0.0 0.0 20.85822982306844 0.0 0.0 0.0 20.85822982306844
20.53950056952781 0.0 0.0 0.0 20.53950056952781 0.0 0.0 0.0 20.53950056952781
20.714136456765395 0.0 0.0 0.0 20.714136456765395 0.0 0.0 0.0 20.714136456765395
20.793647978206558 0.0 0.0 0.0 20.793647978206558 0.0 0.0 0.0 20.793647978206558
20.714250229865193 0.0 0.0 0.0 20.714250229865193 0.0 0.0 0.0 20.714250229865193
20.547593276575164 0.0 0.0 0.0 20.547593276575164 0.0 0.0 0.0 20.547593276575164
20.418520076154024 0.0 0.0 0.0 20.418520076154024 0.0 0.0 0.0 20.418520076154024
20.407098315288923 0.0 0.0 0.0 20.407098315288923 0.0 0.0 0.0 20.407098315288923
20.61556397227934 0.0 0.0 0.0 20.61556397227934 0.0 0.0 0.0 20.61556397227934
20.452361487805444 0.0 0.0 0.0 20.452361487805444 0.0 0.0 0.0 20.452361487805444
20.68132694067027 0.0 0.0 0.0 20.68132694067027 0.0 0.0 0.0 20.68132694067027
20.42051772011556 0.0 0.0 0.0 20.42051772011556 0.0 0.0 0.0 20.42051772011556
20.45394690272167 0.0 0.0 0.0 20.45394690272167 0.0 0.0 0.0 20.45394690272167
20.42123422605567 0.0 0.0 0.0 20.42123422605567 0.0 0.0 0.0 20.42123422605567
20.661953763072447 0.0 0.0 0.0 20.661953763072447 0.0 0.0 0.0 20.661953763072447
20.524930204273005 0.0 0.0 0.0 20.524930204273005 0.0 0.0 0.0 20.524930204273005
20.603008184656737 0.0 0.0 0.0 20.603008184656737 0.0 0.0 0.0 20.603008184656737
20.407098315288923 0.0 0.0 0.0 20.407098315288923 0.0 0.0 0.0 20.407098315288923
20.717765554060286 0.0 0.0 0.0 20.717765554060286 0.0 0.0 0.0 20.717765554060286
20.540279518378508 0.0 0.0 0.0 20.540279518378508 0.0 0.0 0.0 20.540279518378508
20.57126813569969 0.0 0.0 0.0 20.57126813569969 0.0 0.0 0.0 20.57126813569969
20.459409599043504 0.0 0.0 0.0 20.459409599043504 0.0 0.0 0.0 20.459409599043504
20.497247356972405 0.0 0.0 0.0 20.497247356972405 0.0 0.0 0.0 20.497247356972405
20.378148088574317 0.0 0.0 0.0 20.378148088574317 0.0 0.0 0.0 20.378148088574317
20.467736731594155 0.0 0.0 0.0 20.467736731594155 0.0 0.0 0.0 20.467736731594155
20.313878458265364 0.0 0.0 0.0 20.313878458265364 0.0 0.0 0.0 20.313878458265364
