-134633.53231923914
-134631.40773588503
-134633.05167653857
-134631.84202453739
-134630.9637188908
-134631.4983942839
-134631.3078231666
-134632.7075089963
-134632.28925601242
-134633.52053630177
-134633.53231923914
-134632.17989155586
-134631.30492352153
-134631.1916757284
-134628.52207992066
-134630.82131314743
-134632.6879540795
-134629.2398198987
-134632.1609720249
-134629.79747693817
-134630.99253057616
-134624.86670724174
-134627.77483559144
-134623.37435059526
-134628.42529406233
-134627.49001526102
-134629.41570217497
-134630.29865756677
-134628.64697990046
-134626.1185249149
-134627.62328546253
-134620.63933208995
-134624.21790580807
-134624.76480768414
-134624.32243058394
-134625.5704653305
-134623.68078288704
-134620.63933208995
-134623.41271660564
-134622.77402964336
-134622.20577322564
-134623.7858660405
-134624.18239672086
-134622.0871230204
-134616.9695156085
-134621.47679589843
-134617.69193812154
-134619.0099876227
-134620.6410575638
-134619.39199259426
-134619.44192561973
-134620.40194024926
-134619.63101834254
-134617.78673591613
-134616.9695156085
-134616.87941082523
-134615.08046977536
-134617.5300071218
-134615.20107729544
-134614.12833665108
-134619.6072868865
-134613.48529083325
-134611.1087591807
-134617.45309237656
-134616.9695156085
-134612.77174793903
-134612.08443763517
-134611.40234334546
-134614.37223010772
-134614.40900071472
-134612.23435576132
-134614.47091368795
-134611.65802001162
