   6   6   0   0
  0.5000000E+03  0.3000000E-08  0.1000000E-08  0.1000000E-08  0.5000000E-15
  1.000000000000000E-004
  CAR 
 unknown system                          
      1.52133425    -26.03791805  301     -6.64883575      1.00000000
    -26.038  0.0000E+00  0.0000E+00
    -25.946  0.0000E+00  0.0000E+00
    -25.854  0.0000E+00  0.0000E+00
    -25.762  0.0000E+00  0.0000E+00
    -25.670  0.0000E+00  0.0000E+00
    -25.579  0.0000E+00  0.0000E+00
    -25.487  0.0000E+00  0.0000E+00
    -25.395  0.0000E+00  0.0000E+00
    -25.303  0.0000E+00  0.0000E+00
    -25.211  0.0000E+00  0.0000E+00
    -25.119  0.0000E+00  0.0000E+00
    -25.027  0.8034E-10  0.7380E-11
    -24.936  0.2309E-03  0.2121E-04
    -24.844  0.1069E+01  0.9824E-01
    -24.752  0.1695E+02  0.1656E+01
    -24.660  0.7806E+01  0.2373E+01
    -24.568  0.1676E+02  0.3912E+01
    -24.476  0.9539E+00  0.4000E+01
    -24.384  0.1808E-03  0.4000E+01
    -24.292  0.5482E-10  0.4000E+01
    -24.201  0.0000E+00  0.4000E+01
    -24.109  0.0000E+00  0.4000E+01
    -24.017  0.0000E+00  0.4000E+01
    -23.925  0.0000E+00  0.4000E+01
    -23.833  0.0000E+00  0.4000E+01
    -23.741  0.0000E+00  0.4000E+01
    -23.649  0.0000E+00  0.4000E+01
    -23.558  0.0000E+00  0.4000E+01
    -23.466  0.0000E+00  0.4000E+01
    -23.374  0.0000E+00  0.4000E+01
    -23.282  0.0000E+00  0.4000E+01
    -23.190  0.0000E+00  0.4000E+01
    -23.098  0.0000E+00  0.4000E+01
    -23.006  0.0000E+00  0.4000E+01
    -22.915  0.0000E+00  0.4000E+01
    -22.823  0.0000E+00  0.4000E+01
    -22.731  0.0000E+00  0.4000E+01
    -22.639  0.0000E+00  0.4000E+01
    -22.547  0.0000E+00  0.4000E+01
    -22.455  0.0000E+00  0.4000E+01
    -22.363  0.0000E+00  0.4000E+01
    -22.271  0.0000E+00  0.4000E+01
    -22.180  0.0000E+00  0.4000E+01
    -22.088  0.0000E+00  0.4000E+01
    -21.996  0.0000E+00  0.4000E+01
    -21.904  0.0000E+00  0.4000E+01
    -21.812  0.0000E+00  0.4000E+01
    -21.720  0.0000E+00  0.4000E+01
    -21.628  0.0000E+00  0.4000E+01
    -21.537  0.0000E+00  0.4000E+01
    -21.445  0.0000E+00  0.4000E+01
    -21.353  0.0000E+00  0.4000E+01
    -21.261  0.0000E+00  0.4000E+01
    -21.169  0.0000E+00  0.4000E+01
    -21.077  0.0000E+00  0.4000E+01
    -20.985  0.0000E+00  0.4000E+01
    -20.894  0.0000E+00  0.4000E+01
    -20.802  0.0000E+00  0.4000E+01
    -20.710  0.0000E+00  0.4000E+01
    -20.618  0.0000E+00  0.4000E+01
    -20.526  0.0000E+00  0.4000E+01
    -20.434  0.0000E+00  0.4000E+01
    -20.342  0.0000E+00  0.4000E+01
    -20.250  0.0000E+00  0.4000E+01
    -20.159  0.0000E+00  0.4000E+01
    -20.067  0.0000E+00  0.4000E+01
    -19.975  0.0000E+00  0.4000E+01
    -19.883  0.0000E+00  0.4000E+01
    -19.791  0.0000E+00  0.4000E+01
    -19.699  0.0000E+00  0.4000E+01
    -19.607  0.0000E+00  0.4000E+01
    -19.516  0.0000E+00  0.4000E+01
    -19.424  0.0000E+00  0.4000E+01
    -19.332  0.0000E+00  0.4000E+01
    -19.240  0.0000E+00  0.4000E+01
    -19.148  0.0000E+00  0.4000E+01
    -19.056  0.0000E+00  0.4000E+01
    -18.964  0.0000E+00  0.4000E+01
    -18.873  0.0000E+00  0.4000E+01
    -18.781  0.0000E+00  0.4000E+01
    -18.689  0.0000E+00  0.4000E+01
    -18.597  0.0000E+00  0.4000E+01
    -18.505  0.0000E+00  0.4000E+01
    -18.413  0.0000E+00  0.4000E+01
    -18.321  0.0000E+00  0.4000E+01
    -18.229  0.0000E+00  0.4000E+01
    -18.138  0.0000E+00  0.4000E+01
    -18.046  0.0000E+00  0.4000E+01
    -17.954  0.0000E+00  0.4000E+01
    -17.862  0.0000E+00  0.4000E+01
    -17.770  0.0000E+00  0.4000E+01
    -17.678  0.0000E+00  0.4000E+01
    -17.586  0.0000E+00  0.4000E+01
    -17.495  0.0000E+00  0.4000E+01
    -17.403  0.0000E+00  0.4000E+01
    -17.311  0.0000E+00  0.4000E+01
    -17.219  0.0000E+00  0.4000E+01
    -17.127  0.0000E+00  0.4000E+01
    -17.035  0.0000E+00  0.4000E+01
    -16.943  0.0000E+00  0.4000E+01
    -16.852  0.0000E+00  0.4000E+01
    -16.760  0.0000E+00  0.4000E+01
    -16.668  0.0000E+00  0.4000E+01
    -16.576  0.0000E+00  0.4000E+01
    -16.484  0.0000E+00  0.4000E+01
    -16.392  0.0000E+00  0.4000E+01
    -16.300  0.0000E+00  0.4000E+01
    -16.208  0.0000E+00  0.4000E+01
    -16.117  0.0000E+00  0.4000E+01
    -16.025  0.0000E+00  0.4000E+01
    -15.933  0.0000E+00  0.4000E+01
    -15.841  0.0000E+00  0.4000E+01
    -15.749  0.0000E+00  0.4000E+01
    -15.657  0.0000E+00  0.4000E+01
    -15.565  0.0000E+00  0.4000E+01
    -15.474  0.0000E+00  0.4000E+01
    -15.382  0.0000E+00  0.4000E+01
    -15.290  0.0000E+00  0.4000E+01
    -15.198  0.0000E+00  0.4000E+01
    -15.106  0.0000E+00  0.4000E+01
    -15.014  0.0000E+00  0.4000E+01
    -14.922  0.0000E+00  0.4000E+01
    -14.830  0.0000E+00  0.4000E+01
    -14.739  0.0000E+00  0.4000E+01
    -14.647  0.0000E+00  0.4000E+01
    -14.555  0.0000E+00  0.4000E+01
    -14.463  0.0000E+00  0.4000E+01
    -14.371  0.0000E+00  0.4000E+01
    -14.279  0.0000E+00  0.4000E+01
    -14.187  0.0000E+00  0.4000E+01
    -14.096  0.0000E+00  0.4000E+01
    -14.004  0.0000E+00  0.4000E+01
    -13.912  0.0000E+00  0.4000E+01
    -13.820  0.0000E+00  0.4000E+01
    -13.728  0.0000E+00  0.4000E+01
    -13.636  0.0000E+00  0.4000E+01
    -13.544  0.0000E+00  0.4000E+01
    -13.453  0.0000E+00  0.4000E+01
    -13.361  0.0000E+00  0.4000E+01
    -13.269  0.0000E+00  0.4000E+01
    -13.177  0.0000E+00  0.4000E+01
    -13.085  0.0000E+00  0.4000E+01
    -12.993  0.0000E+00  0.4000E+01
    -12.901  0.0000E+00  0.4000E+01
    -12.809  0.1604E-07  0.4000E+01
    -12.718  0.6127E-02  0.4001E+01
    -12.626  0.4293E+01  0.4395E+01
    -12.534  0.1660E+02  0.5920E+01
    -12.442  0.4965E+01  0.6376E+01
    -12.350  0.1673E+02  0.7913E+01
    -12.258  0.9433E+00  0.8000E+01
    -12.166  0.1765E-03  0.8000E+01
    -12.075  0.5281E-10  0.8000E+01
    -11.983  0.0000E+00  0.8000E+01
    -11.891  0.0000E+00  0.8000E+01
    -11.799  0.0000E+00  0.8000E+01
    -11.707  0.0000E+00  0.8000E+01
    -11.615  0.0000E+00  0.8000E+01
    -11.523  0.0000E+00  0.8000E+01
    -11.432  0.0000E+00  0.8000E+01
    -11.340  0.0000E+00  0.8000E+01
    -11.248  0.0000E+00  0.8000E+01
    -11.156  0.0000E+00  0.8000E+01
    -11.064  0.0000E+00  0.8000E+01
    -10.972  0.0000E+00  0.8000E+01
    -10.880  0.0000E+00  0.8000E+01
    -10.788  0.0000E+00  0.8000E+01
    -10.697  0.0000E+00  0.8000E+01
    -10.605  0.0000E+00  0.8000E+01
    -10.513  0.0000E+00  0.8000E+01
    -10.421  0.0000E+00  0.8000E+01
    -10.329  0.0000E+00  0.8000E+01
    -10.237  0.0000E+00  0.8000E+01
    -10.145  0.0000E+00  0.8000E+01
    -10.054  0.0000E+00  0.8000E+01
     -9.962  0.0000E+00  0.8000E+01
     -9.870  0.0000E+00  0.8000E+01
     -9.778  0.0000E+00  0.8000E+01
     -9.686  0.0000E+00  0.8000E+01
     -9.594  0.1326E-09  0.8000E+01
     -9.502  0.3177E-03  0.8000E+01
     -9.411  0.1238E+01  0.8114E+01
     -9.319  0.1717E+02  0.9691E+01
     -9.227  0.5317E+01  0.1018E+02
     -9.135  0.1754E+02  0.1179E+02
     -9.043  0.2274E+01  0.1200E+02
     -8.951  0.1262E-02  0.1200E+02
     -8.859  0.1195E-08  0.1200E+02
     -8.767  0.0000E+00  0.1200E+02
     -8.676  0.0000E+00  0.1200E+02
     -8.584  0.0000E+00  0.1200E+02
     -8.492  0.0000E+00  0.1200E+02
     -8.400  0.0000E+00  0.1200E+02
     -8.308  0.0000E+00  0.1200E+02
     -8.216  0.0000E+00  0.1200E+02
     -8.124  0.0000E+00  0.1200E+02
     -8.033  0.0000E+00  0.1200E+02
     -7.941  0.0000E+00  0.1200E+02
     -7.849  0.0000E+00  0.1200E+02
     -7.757  0.0000E+00  0.1200E+02
     -7.665  0.0000E+00  0.1200E+02
     -7.573  0.0000E+00  0.1200E+02
     -7.481  0.0000E+00  0.1200E+02
     -7.389  0.1049E-09  0.1200E+02
     -7.298  0.2736E-03  0.1200E+02
     -7.206  0.1156E+01  0.1211E+02
     -7.114  0.1707E+02  0.1367E+02
     -7.022  0.4439E+01  0.1408E+02
     -6.930  0.1665E+02  0.1561E+02
     -6.838  0.4223E+01  0.1600E+02
     -6.746  0.5863E-02  0.1600E+02
     -6.655  0.1490E-07  0.1600E+02
     -6.563  0.0000E+00  0.1600E+02
     -6.471  0.0000E+00  0.1600E+02
     -6.379  0.0000E+00  0.1600E+02
     -6.287  0.0000E+00  0.1600E+02
     -6.195  0.0000E+00  0.1600E+02
     -6.103  0.0000E+00  0.1600E+02
     -6.012  0.0000E+00  0.1600E+02
     -5.920  0.0000E+00  0.1600E+02
     -5.828  0.0000E+00  0.1600E+02
     -5.736  0.0000E+00  0.1600E+02
     -5.644  0.0000E+00  0.1600E+02
     -5.552  0.0000E+00  0.1600E+02
     -5.460  0.0000E+00  0.1600E+02
     -5.368  0.0000E+00  0.1600E+02
     -5.277  0.0000E+00  0.1600E+02
     -5.185  0.0000E+00  0.1600E+02
     -5.093  0.0000E+00  0.1600E+02
     -5.001  0.0000E+00  0.1600E+02
     -4.909  0.0000E+00  0.1600E+02
     -4.817  0.0000E+00  0.1600E+02
     -4.725  0.0000E+00  0.1600E+02
     -4.634  0.0000E+00  0.1600E+02
     -4.542  0.0000E+00  0.1600E+02
     -4.450  0.0000E+00  0.1600E+02
     -4.358  0.0000E+00  0.1600E+02
     -4.266  0.0000E+00  0.1600E+02
     -4.174  0.0000E+00  0.1600E+02
     -4.082  0.0000E+00  0.1600E+02
     -3.991  0.0000E+00  0.1600E+02
     -3.899  0.0000E+00  0.1600E+02
     -3.807  0.0000E+00  0.1600E+02
     -3.715  0.0000E+00  0.1600E+02
     -3.623  0.0000E+00  0.1600E+02
     -3.531  0.0000E+00  0.1600E+02
     -3.439  0.0000E+00  0.1600E+02
     -3.347  0.0000E+00  0.1600E+02
     -3.256  0.0000E+00  0.1600E+02
     -3.164  0.0000E+00  0.1600E+02
     -3.072  0.0000E+00  0.1600E+02
     -2.980  0.0000E+00  0.1600E+02
     -2.888  0.0000E+00  0.1600E+02
     -2.796  0.0000E+00  0.1600E+02
     -2.704  0.0000E+00  0.1600E+02
     -2.613  0.0000E+00  0.1600E+02
     -2.521  0.0000E+00  0.1600E+02
     -2.429  0.0000E+00  0.1600E+02
     -2.337  0.0000E+00  0.1600E+02
     -2.245  0.0000E+00  0.1600E+02
     -2.153  0.0000E+00  0.1600E+02
     -2.061  0.0000E+00  0.1600E+02
     -1.970  0.0000E+00  0.1600E+02
     -1.878  0.0000E+00  0.1600E+02
     -1.786  0.0000E+00  0.1600E+02
     -1.694  0.0000E+00  0.1600E+02
     -1.602  0.0000E+00  0.1600E+02
     -1.510  0.0000E+00  0.1600E+02
     -1.418  0.7366E-09  0.1600E+02
     -1.326  0.9347E-03  0.1600E+02
     -1.235  0.2000E+01  0.1618E+02
     -1.143  0.1755E+02  0.1780E+02
     -1.051  0.2827E+01  0.1806E+02
     -0.959  0.1578E+02  0.1951E+02
     -0.867  0.5374E+01  0.2000E+02
     -0.775  0.1126E-01  0.2000E+02
     -0.683  0.4482E-07  0.2000E+02
     -0.592  0.0000E+00  0.2000E+02
     -0.500  0.0000E+00  0.2000E+02
     -0.408  0.0000E+00  0.2000E+02
     -0.316  0.0000E+00  0.2000E+02
     -0.224  0.0000E+00  0.2000E+02
     -0.132  0.0000E+00  0.2000E+02
     -0.040  0.3342E-08  0.2000E+02
      0.052  0.2375E-02  0.2000E+02
      0.143  0.2962E+01  0.2027E+02
      0.235  0.2111E+02  0.2221E+02
      0.327  0.1840E+02  0.2390E+02
      0.419  0.1068E+01  0.2400E+02
      0.511  0.2302E-03  0.2400E+02
      0.603  0.8000E-10  0.2400E+02
      0.695  0.0000E+00  0.2400E+02
      0.786  0.0000E+00  0.2400E+02
      0.878  0.0000E+00  0.2400E+02
      0.970  0.0000E+00  0.2400E+02
      1.062  0.0000E+00  0.2400E+02
      1.154  0.0000E+00  0.2400E+02
      1.246  0.0000E+00  0.2400E+02
      1.338  0.0000E+00  0.2400E+02
      1.429  0.0000E+00  0.2400E+02
      1.521  0.0000E+00  0.2400E+02
