    6    6    1    1
  0.5000000E+03  0.3000000E-08  0.1000000E-08  0.1000000E-08  0.5000000E-15
  1.000000000000000E-004
  CAR 
 unknown system                          
     16      2     12
 
  0.0000000E+00  0.2500000E+00  0.2500000E+00  0.5000000E+00
    1      -24.785225   1.000000
    2      -24.628476   1.000000
    3      -12.595675   1.000000
    4      -12.410728   1.000000
    5       -9.354590   1.000000
    6       -9.179325   1.000000
    7       -7.148654   1.000000
    8       -6.960662   1.000000
    9       -1.187598   0.000000
   10       -0.983149   0.000000
   11        0.181952   0.000000
   12        0.268641   0.000000
 
  0.0000000E+00 -0.2500000E+00  0.2500000E+00  0.5000000E+00
    1      -24.785225   1.000000
    2      -24.628476   1.000000
    3      -12.595675   1.000000
    4      -12.410728   1.000000
    5       -9.354590   1.000000
    6       -9.179325   1.000000
    7       -7.148654   1.000000
    8       -6.960662   1.000000
    9       -1.187601   0.000000
   10       -0.983129   0.000000
   11        0.182486   0.000000
   12        0.268598   0.000000
