   6   6   0   0
  0.5000000E+03  0.3000000E-08  0.1000000E-08  0.1000000E-08  0.5000000E-15
  1.000000000000000E-004
  CAR 
 unknown system                          
      1.46806353    -27.07414398  301     -5.84587715      1.00000000
    -27.074  0.0000E+00  0.0000E+00
    -26.979  0.0000E+00  0.0000E+00
    -26.884  0.0000E+00  0.0000E+00
    -26.789  0.0000E+00  0.0000E+00
    -26.694  0.0000E+00  0.0000E+00
    -26.598  0.0000E+00  0.0000E+00
    -26.503  0.0000E+00  0.0000E+00
    -26.408  0.0000E+00  0.0000E+00
    -26.313  0.0000E+00  0.0000E+00
    -26.218  0.0000E+00  0.0000E+00
    -26.123  0.0000E+00  0.0000E+00
    -26.028  0.1365E-10  0.1299E-11
    -25.932  0.1120E-03  0.1066E-04
    -25.837  0.9124E+00  0.8681E-01
    -25.742  0.1666E+02  0.1672E+01
    -25.647  0.3443E+01  0.2000E+01
    -25.552  0.2554E-02  0.2000E+01
    -25.457  0.2114E-08  0.2000E+01
    -25.362  0.0000E+00  0.2000E+01
    -25.266  0.0000E+00  0.2000E+01
    -25.171  0.0000E+00  0.2000E+01
    -25.076  0.0000E+00  0.2000E+01
    -24.981  0.0000E+00  0.2000E+01
    -24.886  0.0000E+00  0.2000E+01
    -24.791  0.0000E+00  0.2000E+01
    -24.696  0.0000E+00  0.2000E+01
    -24.600  0.0000E+00  0.2000E+01
    -24.505  0.0000E+00  0.2000E+01
    -24.410  0.0000E+00  0.2000E+01
    -24.315  0.0000E+00  0.2000E+01
    -24.220  0.0000E+00  0.2000E+01
    -24.125  0.0000E+00  0.2000E+01
    -24.030  0.0000E+00  0.2000E+01
    -23.935  0.0000E+00  0.2000E+01
    -23.839  0.5257E-07  0.2000E+01
    -23.744  0.1680E-01  0.2002E+01
    -23.649  0.6729E+01  0.2642E+01
    -23.554  0.1400E+02  0.3974E+01
    -23.459  0.2735E+00  0.4000E+01
    -23.364  0.9246E-05  0.4000E+01
    -23.269  0.2941E-12  0.4000E+01
    -23.173  0.0000E+00  0.4000E+01
    -23.078  0.0000E+00  0.4000E+01
    -22.983  0.0000E+00  0.4000E+01
    -22.888  0.0000E+00  0.4000E+01
    -22.793  0.0000E+00  0.4000E+01
    -22.698  0.0000E+00  0.4000E+01
    -22.603  0.0000E+00  0.4000E+01
    -22.507  0.0000E+00  0.4000E+01
    -22.412  0.0000E+00  0.4000E+01
    -22.317  0.0000E+00  0.4000E+01
    -22.222  0.0000E+00  0.4000E+01
    -22.127  0.0000E+00  0.4000E+01
    -22.032  0.0000E+00  0.4000E+01
    -21.937  0.0000E+00  0.4000E+01
    -21.841  0.0000E+00  0.4000E+01
    -21.746  0.0000E+00  0.4000E+01
    -21.651  0.0000E+00  0.4000E+01
    -21.556  0.0000E+00  0.4000E+01
    -21.461  0.0000E+00  0.4000E+01
    -21.366  0.0000E+00  0.4000E+01
    -21.271  0.0000E+00  0.4000E+01
    -21.175  0.0000E+00  0.4000E+01
    -21.080  0.0000E+00  0.4000E+01
    -20.985  0.0000E+00  0.4000E+01
    -20.890  0.0000E+00  0.4000E+01
    -20.795  0.0000E+00  0.4000E+01
    -20.700  0.0000E+00  0.4000E+01
    -20.605  0.0000E+00  0.4000E+01
    -20.509  0.0000E+00  0.4000E+01
    -20.414  0.0000E+00  0.4000E+01
    -20.319  0.0000E+00  0.4000E+01
    -20.224  0.0000E+00  0.4000E+01
    -20.129  0.0000E+00  0.4000E+01
    -20.034  0.0000E+00  0.4000E+01
    -19.939  0.0000E+00  0.4000E+01
    -19.843  0.0000E+00  0.4000E+01
    -19.748  0.0000E+00  0.4000E+01
    -19.653  0.0000E+00  0.4000E+01
    -19.558  0.0000E+00  0.4000E+01
    -19.463  0.0000E+00  0.4000E+01
    -19.368  0.0000E+00  0.4000E+01
    -19.273  0.0000E+00  0.4000E+01
    -19.177  0.0000E+00  0.4000E+01
    -19.082  0.0000E+00  0.4000E+01
    -18.987  0.0000E+00  0.4000E+01
    -18.892  0.0000E+00  0.4000E+01
    -18.797  0.0000E+00  0.4000E+01
    -18.702  0.0000E+00  0.4000E+01
    -18.607  0.0000E+00  0.4000E+01
    -18.511  0.0000E+00  0.4000E+01
    -18.416  0.0000E+00  0.4000E+01
    -18.321  0.0000E+00  0.4000E+01
    -18.226  0.0000E+00  0.4000E+01
    -18.131  0.0000E+00  0.4000E+01
    -18.036  0.0000E+00  0.4000E+01
    -17.941  0.0000E+00  0.4000E+01
    -17.845  0.0000E+00  0.4000E+01
    -17.750  0.0000E+00  0.4000E+01
    -17.655  0.0000E+00  0.4000E+01
    -17.560  0.0000E+00  0.4000E+01
    -17.465  0.0000E+00  0.4000E+01
    -17.370  0.0000E+00  0.4000E+01
    -17.275  0.0000E+00  0.4000E+01
    -17.180  0.0000E+00  0.4000E+01
    -17.084  0.0000E+00  0.4000E+01
    -16.989  0.0000E+00  0.4000E+01
    -16.894  0.0000E+00  0.4000E+01
    -16.799  0.0000E+00  0.4000E+01
    -16.704  0.0000E+00  0.4000E+01
    -16.609  0.0000E+00  0.4000E+01
    -16.514  0.0000E+00  0.4000E+01
    -16.418  0.0000E+00  0.4000E+01
    -16.323  0.0000E+00  0.4000E+01
    -16.228  0.0000E+00  0.4000E+01
    -16.133  0.0000E+00  0.4000E+01
    -16.038  0.0000E+00  0.4000E+01
    -15.943  0.0000E+00  0.4000E+01
    -15.848  0.0000E+00  0.4000E+01
    -15.752  0.0000E+00  0.4000E+01
    -15.657  0.0000E+00  0.4000E+01
    -15.562  0.0000E+00  0.4000E+01
    -15.467  0.0000E+00  0.4000E+01
    -15.372  0.0000E+00  0.4000E+01
    -15.277  0.0000E+00  0.4000E+01
    -15.182  0.0000E+00  0.4000E+01
    -15.086  0.0000E+00  0.4000E+01
    -14.991  0.0000E+00  0.4000E+01
    -14.896  0.0000E+00  0.4000E+01
    -14.801  0.0000E+00  0.4000E+01
    -14.706  0.0000E+00  0.4000E+01
    -14.611  0.0000E+00  0.4000E+01
    -14.516  0.0000E+00  0.4000E+01
    -14.420  0.0000E+00  0.4000E+01
    -14.325  0.0000E+00  0.4000E+01
    -14.230  0.0000E+00  0.4000E+01
    -14.135  0.0000E+00  0.4000E+01
    -14.040  0.0000E+00  0.4000E+01
    -13.945  0.0000E+00  0.4000E+01
    -13.850  0.0000E+00  0.4000E+01
    -13.754  0.0000E+00  0.4000E+01
    -13.659  0.7064E-07  0.4000E+01
    -13.564  0.1988E-01  0.4002E+01
    -13.469  0.7102E+01  0.4678E+01
    -13.374  0.1366E+02  0.5977E+01
    -13.279  0.2406E+00  0.6000E+01
    -13.184  0.7177E-05  0.6000E+01
    -13.088  0.2007E-12  0.6000E+01
    -12.993  0.0000E+00  0.6000E+01
    -12.898  0.0000E+00  0.6000E+01
    -12.803  0.0000E+00  0.6000E+01
    -12.708  0.0000E+00  0.6000E+01
    -12.613  0.0000E+00  0.6000E+01
    -12.518  0.0000E+00  0.6000E+01
    -12.422  0.0000E+00  0.6000E+01
    -12.327  0.0000E+00  0.6000E+01
    -12.232  0.0000E+00  0.6000E+01
    -12.137  0.0000E+00  0.6000E+01
    -12.042  0.1714E-07  0.6000E+01
    -11.947  0.8811E-02  0.6001E+01
    -11.852  0.5419E+01  0.6516E+01
    -11.756  0.1516E+02  0.7959E+01
    -11.661  0.4324E+00  0.8000E+01
    -11.566  0.2324E-04  0.8000E+01
    -11.471  0.1195E-11  0.8000E+01
    -11.376  0.0000E+00  0.8000E+01
    -11.281  0.0000E+00  0.8000E+01
    -11.186  0.0000E+00  0.8000E+01
    -11.091  0.0000E+00  0.8000E+01
    -10.995  0.0000E+00  0.8000E+01
    -10.900  0.0000E+00  0.8000E+01
    -10.805  0.0000E+00  0.8000E+01
    -10.710  0.0000E+00  0.8000E+01
    -10.615  0.0000E+00  0.8000E+01
    -10.520  0.8008E-09  0.8000E+01
    -10.425  0.1420E-02  0.8000E+01
    -10.329  0.2733E+01  0.8260E+01
    -10.234  0.1705E+02  0.9882E+01
    -10.139  0.1236E+01  0.1000E+02
    -10.044  0.2188E-03  0.1000E+02
     -9.949  0.3923E-10  0.1000E+02
     -9.854  0.0000E+00  0.1000E+02
     -9.759  0.0000E+00  0.1000E+02
     -9.663  0.0000E+00  0.1000E+02
     -9.568  0.0000E+00  0.1000E+02
     -9.473  0.0000E+00  0.1000E+02
     -9.378  0.0000E+00  0.1000E+02
     -9.283  0.0000E+00  0.1000E+02
     -9.188  0.0000E+00  0.1000E+02
     -9.093  0.0000E+00  0.1000E+02
     -8.997  0.0000E+00  0.1000E+02
     -8.902  0.0000E+00  0.1000E+02
     -8.807  0.2311E-12  0.1000E+02
     -8.712  0.7899E-05  0.1000E+02
     -8.617  0.2526E+00  0.1002E+02
     -8.522  0.1379E+02  0.1134E+02
     -8.427  0.6960E+01  0.1200E+02
     -8.331  0.1866E-01  0.1200E+02
     -8.236  0.6320E-07  0.1200E+02
     -8.141  0.0000E+00  0.1200E+02
     -8.046  0.0000E+00  0.1200E+02
     -7.951  0.4084E-13  0.1200E+02
     -7.856  0.2501E-05  0.1200E+02
     -7.761  0.1397E+00  0.1201E+02
     -7.665  0.1216E+02  0.1317E+02
     -7.570  0.8683E+01  0.1400E+02
     -7.475  0.3848E-01  0.1400E+02
     -7.380  0.2292E-06  0.1400E+02
     -7.285  0.0000E+00  0.1400E+02
     -7.190  0.0000E+00  0.1400E+02
     -7.095  0.0000E+00  0.1400E+02
     -6.999  0.0000E+00  0.1400E+02
     -6.904  0.0000E+00  0.1400E+02
     -6.809  0.0000E+00  0.1400E+02
     -6.714  0.0000E+00  0.1400E+02
     -6.619  0.0000E+00  0.1400E+02
     -6.524  0.0000E+00  0.1400E+02
     -6.429  0.0000E+00  0.1400E+02
     -6.333  0.1737E-08  0.1400E+02
     -6.238  0.2269E-02  0.1400E+02
     -6.143  0.3289E+01  0.1431E+02
     -6.048  0.1676E+02  0.1591E+02
     -5.953  0.9721E+00  0.1600E+02
     -5.858  0.1286E-03  0.1600E+02
     -5.763  0.1696E-10  0.1600E+02
     -5.667  0.0000E+00  0.1600E+02
     -5.572  0.0000E+00  0.1600E+02
     -5.477  0.0000E+00  0.1600E+02
     -5.382  0.0000E+00  0.1600E+02
     -5.287  0.0000E+00  0.1600E+02
     -5.192  0.0000E+00  0.1600E+02
     -5.097  0.0000E+00  0.1600E+02
     -5.002  0.0000E+00  0.1600E+02
     -4.906  0.0000E+00  0.1600E+02
     -4.811  0.0000E+00  0.1600E+02
     -4.716  0.0000E+00  0.1600E+02
     -4.621  0.0000E+00  0.1600E+02
     -4.526  0.0000E+00  0.1600E+02
     -4.431  0.0000E+00  0.1600E+02
     -4.336  0.0000E+00  0.1600E+02
     -4.240  0.0000E+00  0.1600E+02
     -4.145  0.0000E+00  0.1600E+02
     -4.050  0.0000E+00  0.1600E+02
     -3.955  0.0000E+00  0.1600E+02
     -3.860  0.0000E+00  0.1600E+02
     -3.765  0.0000E+00  0.1600E+02
     -3.670  0.0000E+00  0.1600E+02
     -3.574  0.0000E+00  0.1600E+02
     -3.479  0.0000E+00  0.1600E+02
     -3.384  0.0000E+00  0.1600E+02
     -3.289  0.0000E+00  0.1600E+02
     -3.194  0.0000E+00  0.1600E+02
     -3.099  0.0000E+00  0.1600E+02
     -3.004  0.0000E+00  0.1600E+02
     -2.908  0.0000E+00  0.1600E+02
     -2.813  0.0000E+00  0.1600E+02
     -2.718  0.0000E+00  0.1600E+02
     -2.623  0.0000E+00  0.1600E+02
     -2.528  0.0000E+00  0.1600E+02
     -2.433  0.0000E+00  0.1600E+02
     -2.338  0.0000E+00  0.1600E+02
     -2.242  0.0000E+00  0.1600E+02
     -2.147  0.0000E+00  0.1600E+02
     -2.052  0.0000E+00  0.1600E+02
     -1.957  0.0000E+00  0.1600E+02
     -1.862  0.0000E+00  0.1600E+02
     -1.767  0.7735E-07  0.1600E+02
     -1.672  0.2093E-01  0.1600E+02
     -1.576  0.7218E+01  0.1669E+02
     -1.481  0.1355E+02  0.1798E+02
     -1.386  0.2312E+00  0.1800E+02
     -1.291  0.6634E-05  0.1800E+02
     -1.196  0.1774E-12  0.1800E+02
     -1.101  0.0000E+00  0.1800E+02
     -1.006  0.0000E+00  0.1800E+02
     -0.910  0.0000E+00  0.1800E+02
     -0.815  0.0000E+00  0.1800E+02
     -0.720  0.0000E+00  0.1800E+02
     -0.625  0.0000E+00  0.1800E+02
     -0.530  0.0000E+00  0.1800E+02
     -0.435  0.0000E+00  0.1800E+02
     -0.340  0.2902E-08  0.1800E+02
     -0.244  0.3087E-02  0.1800E+02
     -0.149  0.3702E+01  0.1835E+02
     -0.054  0.1911E+02  0.2017E+02
      0.041  0.1793E+02  0.2188E+02
      0.136  0.4795E+01  0.2233E+02
      0.231  0.1664E+02  0.2391E+02
      0.326  0.8959E+00  0.2400E+02
      0.422  0.1077E-03  0.2400E+02
      0.517  0.1285E-10  0.2400E+02
      0.612  0.0000E+00  0.2400E+02
      0.707  0.0000E+00  0.2400E+02
      0.802  0.0000E+00  0.2400E+02
      0.897  0.0000E+00  0.2400E+02
      0.992  0.0000E+00  0.2400E+02
      1.088  0.0000E+00  0.2400E+02
      1.183  0.0000E+00  0.2400E+02
      1.278  0.0000E+00  0.2400E+02
      1.373  0.0000E+00  0.2400E+02
      1.468  0.0000E+00  0.2400E+02
