
     Program PWSCF v.5.4.0 starts on 22Sep2019 at 18:57:41 

     This program is part of the open-source Quantum ESPRESSO suite
     for quantum simulation of materials; please cite
         "P. Giannozzi et al., J. Phys.:Condens. Matter 21 395502 (2009);
          URL http://www.quantum-espresso.org", 
     in publications or presentations arising from this work. More details at
     http://www.quantum-espresso.org/quote

           HOST :    @host@
           ARCH :    
             CC :    cc
            CPP :    cpp
            F90 :    mpif90
            F77 :    gfortran
         DFLAGS :    -D__GFORTRAN -D__STD_F95 -D__FFTW3 -D__MPI -D__PARA
      BLAS LIBS :    -lopenblas
    LAPACK LIBS :    -lopenblas
       FFT LIBS :    -lfftw3
      MASS LIBS :    

     Parallel version (MPI), running on    28 processors
     R & G space division:  proc/nbgrp/npool/nimage =      28
     Waiting for input...
     Reading input from standard input
Warning: card &IONS ignored
Warning: card / ignored
Warning: card &CELL ignored
Warning: card / ignored

     Current dimensions of program PWSCF are:
     Max number of different atomic species (ntypx) = 10
     Max number of k-points (npk) =  40000
     Max angular momentum in pseudopotentials (lmaxx) =  3

     IMPORTANT: XC functional enforced from input :
     Exchange-correlation      = PBE ( 1  4  3  4 0 0)
     Any further DFT definition will be discarded
     Please, verify this is what you really want


     gamma-point specific algorithms are used

     Subspace diagonalization in iterative solution of the eigenvalue problem:
     a serial algorithm will be used


     Parallelization info
     --------------------
     sticks:   dense  smooth     PW     G-vecs:    dense   smooth      PW
     Min         445     445    110                37558    37558    4694
     Max         448     448    112                37564    37564    4708
     Sum       12517   12517   3125              1051747  1051747  131683
     Tot        6259    6259   1563



     bravais-lattice index     =            1
     lattice parameter (alat)  =      18.8973  a.u.
     unit-cell volume          =    6748.3346 (a.u.)^3
     number of atoms/cell      =            5
     number of atomic types    =            2
     number of electrons       =         8.00
     number of Kohn-Sham states=            4
     kinetic-energy cutoff     =     110.0000  Ry
     charge density cutoff     =     440.0000  Ry
     convergence threshold     =      1.0E-06
     mixing beta               =       0.5000
     number of iterations used =            8  plain     mixing
     Exchange-correlation      = PBE ( 1  4  3  4 0 0)

     celldm(1)=  18.897261  celldm(2)=   0.000000  celldm(3)=   0.000000
     celldm(4)=   0.000000  celldm(5)=   0.000000  celldm(6)=   0.000000

     crystal axes: (cart. coord. in units of alat)
               a(1) = (   1.000000   0.000000   0.000000 )  
               a(2) = (   0.000000   1.000000   0.000000 )  
               a(3) = (   0.000000   0.000000   1.000000 )  

     reciprocal axes: (cart. coord. in units 2 pi/alat)
               b(1) = (  1.000000  0.000000  0.000000 )  
               b(2) = (  0.000000  1.000000  0.000000 )  
               b(3) = (  0.000000  0.000000  1.000000 )  


     PseudoPot. # 1 for  H read from file:
     ../pseudo/H.tm.pbe.UPF
     MD5 check sum: 4b614d66af87240b7a5107bfa527a767
     Pseudo is Norm-conserving, Zval =  1.0
     Generated using "atomic" code by A. Dal Corso  v.5.2.0
     Using radial grid of  929 points,  0 beta functions with: 

     PseudoPot. # 2 for  C read from file:
     ../pseudo/C.tm.pbe.UPF
     MD5 check sum: a4f27fcb9b24331b00ace8e732a7e062
     Pseudo is Norm-conserving, Zval =  4.0
     Generated using "atomic" code by A. Dal Corso  v.5.2.0
     Using radial grid of 1073 points,  1 beta functions with: 
                l(1) =   1

     atomic species   valence    mass     pseudopotential
        H              1.00     1.00000      H( 1.00)
        C              4.00     1.00000      C( 1.00)

     No symmetry found



   Cartesian axes

     site n.     atom                  positions (alat units)
         1           H   tau(   1) = (   0.5379840   0.3934970   0.3521720  )
         2           H   tau(   2) = (   0.4031230   0.4727150   0.4339980  )
         3           H   tau(   3) = (   0.5585900   0.5550430   0.4393880  )
         4           H   tau(   4) = (   0.5381880   0.4071340   0.5307140  )
         5           C   tau(   5) = (   0.5107770   0.4564430   0.4391000  )

     number of k points=     1
                       cart. coord. in units 2pi/alat
        k(    1) = (   0.0000000   0.0000000   0.0000000), wk =   2.0000000

     Dense  grid:   525874 G-vectors     FFT dimensions: ( 128, 128, 128)

     Largest allocated arrays     est. size (Mb)     dimensions
        Kohn-Sham Wavefunctions         0.14 Mb     (    2354,    4)
        NL pseudopotentials             0.11 Mb     (    2354,    3)
        Each V/rho on FFT grid          1.25 Mb     (   81920)
        Each G-vector array             0.14 Mb     (   18782)
        G-vector shells                 0.02 Mb     (    2785)
     Largest temporary arrays     est. size (Mb)     dimensions
        Auxiliary wavefunctions         0.29 Mb     (    2354,   16)
        Each subspace H/S matrix        0.00 Mb     (      16,   16)
        Each <psi_i|beta_j> matrix      0.00 Mb     (       3,    4)
        Arrays for rho mixing          10.00 Mb     (   81920,    8)

     Initial potential from superposition of free atoms
     Check: negative starting charge=   -0.000383

     starting charge    7.99992, renormalised to    8.00000

     negative rho (up, down):  3.834E-04 0.000E+00
     Starting wfc are    8 randomized atomic wfcs

     total cpu time spent up to now is        2.9 secs

     per-process dynamical memory:   430.8 Mb

     Self-consistent Calculation

     iteration #  1     ecut=   110.00 Ry     beta=0.50
     Davidson diagonalization with overlap
     ethr =  1.00E-02,  avg # of iterations =  2.0

     negative rho (up, down):  1.809E-04 0.000E+00

     total cpu time spent up to now is        3.5 secs

     total energy              =     -16.01816270 Ry
     Harris-Foulkes estimate   =     -16.41392127 Ry
     estimated scf accuracy    <       0.70291518 Ry

     iteration #  2     ecut=   110.00 Ry     beta=0.50
     Davidson diagonalization with overlap
     ethr =  8.79E-03,  avg # of iterations =  2.0

     negative rho (up, down):  9.446E-05 0.000E+00

     total cpu time spent up to now is        4.0 secs

     total energy              =     -16.15269216 Ry
     Harris-Foulkes estimate   =     -16.17161856 Ry
     estimated scf accuracy    <       0.04945570 Ry

     iteration #  3     ecut=   110.00 Ry     beta=0.50
     Davidson diagonalization with overlap
     ethr =  6.18E-04,  avg # of iterations =  1.0

     negative rho (up, down):  4.885E-06 0.000E+00

     total cpu time spent up to now is        4.4 secs

     total energy              =     -16.15084819 Ry
     Harris-Foulkes estimate   =     -16.15629033 Ry
     estimated scf accuracy    <       0.01142564 Ry

     iteration #  4     ecut=   110.00 Ry     beta=0.50
     Davidson diagonalization with overlap
     ethr =  1.43E-04,  avg # of iterations =  2.0

     negative rho (up, down):  5.041E-06 0.000E+00

     total cpu time spent up to now is        4.8 secs

     total energy              =     -16.15272635 Ry
     Harris-Foulkes estimate   =     -16.15485609 Ry
     estimated scf accuracy    <       0.00489933 Ry

     iteration #  5     ecut=   110.00 Ry     beta=0.50
     Davidson diagonalization with overlap
     ethr =  6.12E-05,  avg # of iterations =  1.0

     negative rho (up, down):  1.251E-06 0.000E+00

     total cpu time spent up to now is        5.3 secs

     total energy              =     -16.15293200 Ry
     Harris-Foulkes estimate   =     -16.15314139 Ry
     estimated scf accuracy    <       0.00036582 Ry

     iteration #  6     ecut=   110.00 Ry     beta=0.50
     Davidson diagonalization with overlap
     ethr =  4.57E-06,  avg # of iterations =  3.0

     total cpu time spent up to now is        5.8 secs

     total energy              =     -16.15315489 Ry
     Harris-Foulkes estimate   =     -16.15321480 Ry
     estimated scf accuracy    <       0.00014204 Ry

     iteration #  7     ecut=   110.00 Ry     beta=0.50
     Davidson diagonalization with overlap
     ethr =  1.78E-06,  avg # of iterations =  2.0

     total cpu time spent up to now is        6.4 secs

     total energy              =     -16.15317028 Ry
     Harris-Foulkes estimate   =     -16.15317300 Ry
     estimated scf accuracy    <       0.00000620 Ry

     iteration #  8     ecut=   110.00 Ry     beta=0.50
     Davidson diagonalization with overlap
     ethr =  7.75E-08,  avg # of iterations =  2.0

     total cpu time spent up to now is        6.9 secs

     End of self-consistent calculation

          k = 0.0000 0.0000 0.0000 ( 65842 PWs)   bands (ev):

   -16.8602  -9.4659  -9.3303  -8.9914

     highest occupied level (ev):    -8.9914

!    total energy              =     -16.15317152 Ry
     Harris-Foulkes estimate   =     -16.15317170 Ry
     estimated scf accuracy    <       0.00000048 Ry

     The total energy is the sum of the following terms:

     one-electron contribution =     -40.34253876 Ry
     hartree contribution      =      20.99887767 Ry
     xc contribution           =      -6.35286027 Ry
     ewald contribution        =       9.54334984 Ry

     convergence has been achieved in   8 iterations

     Forces acting on atoms (Ry/au):

     atom    1 type  1   force =     0.00705149    0.01446115    0.01040057
     atom    2 type  1   force =    -0.01061507   -0.00160836    0.00665890
     atom    3 type  1   force =     0.00679819   -0.00248578   -0.01214685
     atom    4 type  1   force =     0.00151597   -0.01710793    0.02175446
     atom    5 type  2   force =    -0.00475059    0.00674092   -0.02666707

     Total force =     0.047686     Total SCF correction =     0.000188


     entering subroutine stress ...

          total   stress  (Ry/bohr**3)                   (kbar)     P=    0.06
   0.00000289  -0.00000006  -0.00000116          0.42     -0.01     -0.17
  -0.00000006  -0.00000281  -0.00000788         -0.01     -0.41     -1.16
  -0.00000116  -0.00000788   0.00000107         -0.17     -1.16      0.16


     init_run     :      2.57s CPU      2.58s WALL (       1 calls)
     electrons    :      3.92s CPU      3.99s WALL (       1 calls)
     forces       :      1.05s CPU      1.05s WALL (       1 calls)
     stress       :      1.12s CPU      1.13s WALL (       1 calls)

     Called by init_run:
     wfcinit      :      0.20s CPU      0.20s WALL (       1 calls)
     potinit      :      1.02s CPU      1.04s WALL (       1 calls)

     Called by electrons:
     c_bands      :      1.70s CPU      1.71s WALL (       8 calls)
     sum_band     :      0.44s CPU      0.45s WALL (       8 calls)
     v_of_rho     :      1.75s CPU      1.79s WALL (       9 calls)
     mix_rho      :      0.21s CPU      0.21s WALL (       8 calls)

     Called by c_bands:
     init_us_2    :      0.04s CPU      0.04s WALL (      17 calls)
     regterg      :      1.68s CPU      1.68s WALL (       8 calls)

     Called by sum_band:

     Called by *egterg:
     h_psi        :      1.82s CPU      1.82s WALL (      24 calls)
     g_psi        :      0.01s CPU      0.01s WALL (      15 calls)
     rdiaghg      :      0.00s CPU      0.00s WALL (      23 calls)

     Called by h_psi:
     add_vuspsi   :      0.00s CPU      0.00s WALL (      24 calls)

     General routines
     calbec       :      0.67s CPU      0.67s WALL (      29 calls)
     fft          :      1.68s CPU      1.74s WALL (     106 calls)
     fftw         :      1.16s CPU      1.17s WALL (     116 calls)

     Parallel routines
     fft_scatter  :      1.15s CPU      1.19s WALL (     222 calls)

     PWSCF        :     9.03s CPU         9.15s WALL


   This run was terminated on:  18:57:50  22Sep2019            

=------------------------------------------------------------------------------=
   JOB DONE.
=------------------------------------------------------------------------------=
