-2.136880513125401837e+00 -1.273586178486623810e+00 3.104526638826796484e-02 -1.273586178486623810e+00 -3.741741029936052954e+00 4.027645838429698422e-02 3.104526638826796484e-02 4.027645838429698422e-02 -2.789168148771784761e+00
