-1.884320922851562500e+03
-1.864775756835937500e+03
-1.865504150390625000e+03
-1.865613037109375000e+03
-1.867362915039062500e+03
-1.865557983398437500e+03
-1.865698974609375000e+03
-1.864038696289062500e+03
-1.865841430664062500e+03
-1.864022216796875000e+03
-1.866689331054687500e+03
-1.862205566406250000e+03
-1.864162231445312500e+03
-1.863467773437500000e+03
-1.864076293945312500e+03
-1.864094238281250000e+03
-1.866210205078125000e+03
-1.866677124023437500e+03
-1.866853881835937500e+03
-1.863607666015625000e+03
-1.865739379882812500e+03
-1.867045043945312500e+03
-1.864026367187500000e+03
-1.867050659179687500e+03
-1.864785278320312500e+03
-1.862401000976562500e+03
-1.865803833007812500e+03
-1.863148193359375000e+03
-1.865382324218750000e+03
-1.866082763671875000e+03
-1.864403442382812500e+03
-1.866143066406250000e+03
-1.864848144531250000e+03
-1.866728027343750000e+03
-1.865046020507812500e+03
-1.864437866210937500e+03
-1.864576782226562500e+03
-1.864835327148437500e+03
-1.865749023437500000e+03
-1.863456176757812500e+03
-1.866756225585937500e+03
-1.863755249023437500e+03
-1.863969848632812500e+03
-1.867023925781250000e+03
-1.864708862304687500e+03
-1.866791137695312500e+03
-1.866342285156250000e+03
-1.864549316406250000e+03
