       N       E                     dE             d eps       ncg     rms          rms(c)
DAV:   1     0.152780199211E+03    0.15278E+03   -0.47238E+03    64   0.142E+03
DAV:   2     0.562995302329E+02   -0.96481E+02   -0.95460E+02    96   0.140E+02
DAV:   3    -0.181629955082E+02   -0.74463E+02   -0.73500E+02    80   0.135E+02
DAV:   4    -0.316035420628E+02   -0.13441E+02   -0.13425E+02    64   0.706E+01
DAV:   5    -0.319804380069E+02   -0.37690E+00   -0.37656E+00    64   0.178E+01    0.182E+01
RMM:   6    -0.286054333442E+02    0.33750E+01   -0.11876E+01    64   0.247E+01    0.178E+01
RMM:   7    -0.285438968693E+02    0.61536E-01   -0.13030E+00    76   0.558E+00    0.155E+01
RMM:   8    -0.293870375289E+02   -0.84314E+00   -0.67498E+00    64   0.219E+01    0.113E+01
RMM:   9    -0.283084432679E+02    0.10786E+01   -0.26393E+00    64   0.118E+01    0.378E+00
RMM:  10    -0.283226390749E+02   -0.14196E-01   -0.18448E-01    76   0.241E+00    0.170E+00
RMM:  11    -0.283190212546E+02    0.36178E-02   -0.26903E-02    72   0.781E-01    0.392E-01
RMM:  12    -0.283226184860E+02   -0.35972E-02   -0.59002E-02    64   0.141E+00    0.802E-01
RMM:  13    -0.283267318256E+02   -0.41133E-02   -0.37376E-03    62   0.353E-01    0.668E-01
RMM:  14    -0.283350561772E+02   -0.83244E-02   -0.30457E-03    60   0.280E-01    0.419E-01
RMM:  15    -0.283354453392E+02   -0.38916E-03   -0.19090E-03    62   0.326E-01    0.133E-01
RMM:  16    -0.283381352062E+02   -0.26899E-02   -0.81369E-03    60   0.596E-01    0.229E-01
RMM:  17    -0.283399968944E+02   -0.18617E-02   -0.28113E-03    72   0.308E-01    0.374E-01
RMM:  18    -0.283393040485E+02    0.69285E-03   -0.14678E-03    64   0.264E-01    0.214E-01
RMM:  19    -0.283397429643E+02   -0.43892E-03   -0.75491E-03    56   0.554E-01    0.215E-01
RMM:  20    -0.283401725822E+02   -0.42962E-03   -0.27385E-03    70   0.273E-01    0.423E-01
RMM:  21    -0.283395123066E+02    0.66028E-03   -0.17512E-04    64   0.816E-02    0.370E-01
RMM:  22    -0.283387534117E+02    0.75889E-03   -0.19476E-03    58   0.281E-01    0.133E-01
RMM:  23    -0.283391977750E+02   -0.44436E-03   -0.31803E-03    65   0.347E-01    0.123E-01
RMM:  24    -0.283397813443E+02   -0.58357E-03   -0.97553E-04    75   0.159E-01    0.237E-01
RMM:  25    -0.283399206652E+02   -0.13932E-03   -0.49274E-05    71   0.433E-02    0.236E-01
RMM:  26    -0.283400295068E+02   -0.10884E-03   -0.25507E-04    55   0.102E-01    0.111E-01
RMM:  27    -0.283401012343E+02   -0.71728E-04   -0.39050E-04    55   0.121E-01    0.317E-02
RMM:  28    -0.283402106158E+02   -0.10938E-03   -0.13832E-04    65   0.635E-02    0.103E-02
RMM:  29    -0.283402955022E+02   -0.84886E-04   -0.54939E-05    60   0.448E-02    0.408E-02
RMM:  30    -0.283403673305E+02   -0.71828E-04   -0.87650E-06    63   0.153E-02    0.473E-02
RMM:  31    -0.283404085053E+02   -0.41175E-04   -0.39376E-05    58   0.405E-02    0.180E-02
RMM:  32    -0.283404498512E+02   -0.41346E-04   -0.47408E-05    68   0.406E-02    0.988E-03
RMM:  33    -0.283404915952E+02   -0.41744E-04   -0.29271E-06    68   0.820E-03    0.118E-02
RMM:  34    -0.283405102093E+02   -0.18614E-04   -0.76617E-07    66   0.486E-03    0.108E-02
RMM:  35    -0.283405236149E+02   -0.13406E-04   -0.68365E-07    65   0.445E-03    0.838E-03
RMM:  36    -0.283405288241E+02   -0.52093E-05   -0.20062E-06    58   0.876E-03    0.102E-03
RMM:  37    -0.283405306336E+02   -0.18095E-05   -0.52015E-07    74   0.382E-03    0.170E-03
RMM:  38    -0.283405322910E+02   -0.16574E-05   -0.34676E-08    50   0.122E-03    0.104E-03
RMM:  39    -0.283405329899E+02   -0.69889E-06   -0.49873E-08    56   0.134E-03    0.315E-04
RMM:  40    -0.283405332322E+02   -0.24227E-06   -0.78174E-09    46   0.601E-04    0.124E-04
RMM:  41    -0.283405334229E+02   -0.19069E-06   -0.42827E-09    42   0.399E-04    0.856E-05
RMM:  42    -0.283405335005E+02   -0.77574E-07   -0.31754E-09    40   0.282E-04    0.298E-05
RMM:  43    -0.283405335753E+02   -0.74853E-07   -0.21630E-09    36   0.248E-04    0.368E-05
RMM:  44    -0.283405335944E+02   -0.19071E-07   -0.16666E-09    36   0.224E-04    0.229E-05
RMM:  45    -0.283405336001E+02   -0.56789E-08   -0.99088E-10    42   0.205E-04
   1 F= -.28340534E+02 E0= -.28340534E+02  d E =-.544191E-17
