
     Program PWSCF v.5.4.0 starts on 22Sep2019 at 18:30:35 

     This program is part of the open-source Quantum ESPRESSO suite
     for quantum simulation of materials; please cite
         "P. Giannozzi et al., J. Phys.:Condens. Matter 21 395502 (2009);
          URL http://www.quantum-espresso.org", 
     in publications or presentations arising from this work. More details at
     http://www.quantum-espresso.org/quote

           HOST :    @host@
           ARCH :    
             CC :    cc
            CPP :    cpp
            F90 :    mpif90
            F77 :    gfortran
         DFLAGS :    -D__GFORTRAN -D__STD_F95 -D__FFTW3 -D__MPI -D__PARA
      BLAS LIBS :    -lopenblas
    LAPACK LIBS :    -lopenblas
       FFT LIBS :    -lfftw3
      MASS LIBS :    

     Parallel version (MPI), running on    28 processors
     R & G space division:  proc/nbgrp/npool/nimage =      28
     Waiting for input...
     Reading input from standard input
Warning: card &IONS ignored
Warning: card / ignored
Warning: card &CELL ignored
Warning: card / ignored

     Current dimensions of program PWSCF are:
     Max number of different atomic species (ntypx) = 10
     Max number of k-points (npk) =  40000
     Max angular momentum in pseudopotentials (lmaxx) =  3

     IMPORTANT: XC functional enforced from input :
     Exchange-correlation      = PBE ( 1  4  3  4 0 0)
     Any further DFT definition will be discarded
     Please, verify this is what you really want


     gamma-point specific algorithms are used

     Subspace diagonalization in iterative solution of the eigenvalue problem:
     a serial algorithm will be used


     Parallelization info
     --------------------
     sticks:   dense  smooth     PW     G-vecs:    dense   smooth      PW
     Min         445     445    110                37558    37558    4694
     Max         448     448    112                37564    37564    4708
     Sum       12517   12517   3125              1051747  1051747  131683
     Tot        6259    6259   1563



     bravais-lattice index     =            1
     lattice parameter (alat)  =      18.8973  a.u.
     unit-cell volume          =    6748.3346 (a.u.)^3
     number of atoms/cell      =            5
     number of atomic types    =            2
     number of electrons       =         8.00
     number of Kohn-Sham states=            4
     kinetic-energy cutoff     =     110.0000  Ry
     charge density cutoff     =     440.0000  Ry
     convergence threshold     =      1.0E-06
     mixing beta               =       0.5000
     number of iterations used =            8  plain     mixing
     Exchange-correlation      = PBE ( 1  4  3  4 0 0)

     celldm(1)=  18.897261  celldm(2)=   0.000000  celldm(3)=   0.000000
     celldm(4)=   0.000000  celldm(5)=   0.000000  celldm(6)=   0.000000

     crystal axes: (cart. coord. in units of alat)
               a(1) = (   1.000000   0.000000   0.000000 )  
               a(2) = (   0.000000   1.000000   0.000000 )  
               a(3) = (   0.000000   0.000000   1.000000 )  

     reciprocal axes: (cart. coord. in units 2 pi/alat)
               b(1) = (  1.000000  0.000000  0.000000 )  
               b(2) = (  0.000000  1.000000  0.000000 )  
               b(3) = (  0.000000  0.000000  1.000000 )  


     PseudoPot. # 1 for  H read from file:
     ../pseudo/H.tm.pbe.UPF
     MD5 check sum: 4b614d66af87240b7a5107bfa527a767
     Pseudo is Norm-conserving, Zval =  1.0
     Generated using "atomic" code by A. Dal Corso  v.5.2.0
     Using radial grid of  929 points,  0 beta functions with: 

     PseudoPot. # 2 for  C read from file:
     ../pseudo/C.tm.pbe.UPF
     MD5 check sum: a4f27fcb9b24331b00ace8e732a7e062
     Pseudo is Norm-conserving, Zval =  4.0
     Generated using "atomic" code by A. Dal Corso  v.5.2.0
     Using radial grid of 1073 points,  1 beta functions with: 
                l(1) =   1

     atomic species   valence    mass     pseudopotential
        H              1.00     1.00000      H( 1.00)
        C              4.00     1.00000      C( 1.00)

     No symmetry found



   Cartesian axes

     site n.     atom                  positions (alat units)
         1           H   tau(   1) = (   0.5451850   0.4173200   0.3422480  )
         2           H   tau(   2) = (   0.4100330   0.4899340   0.4344630  )
         3           H   tau(   3) = (   0.5675200   0.5661870   0.4429930  )
         4           H   tau(   4) = (   0.5443860   0.4093420   0.5220550  )
         5           C   tau(   5) = (   0.5168670   0.4696840   0.4369620  )

     number of k points=     1
                       cart. coord. in units 2pi/alat
        k(    1) = (   0.0000000   0.0000000   0.0000000), wk =   2.0000000

     Dense  grid:   525874 G-vectors     FFT dimensions: ( 128, 128, 128)

     Largest allocated arrays     est. size (Mb)     dimensions
        Kohn-Sham Wavefunctions         0.14 Mb     (    2354,    4)
        NL pseudopotentials             0.11 Mb     (    2354,    3)
        Each V/rho on FFT grid          1.25 Mb     (   81920)
        Each G-vector array             0.14 Mb     (   18782)
        G-vector shells                 0.02 Mb     (    2785)
     Largest temporary arrays     est. size (Mb)     dimensions
        Auxiliary wavefunctions         0.29 Mb     (    2354,   16)
        Each subspace H/S matrix        0.00 Mb     (      16,   16)
        Each <psi_i|beta_j> matrix      0.00 Mb     (       3,    4)
        Arrays for rho mixing          10.00 Mb     (   81920,    8)

     Initial potential from superposition of free atoms
     Check: negative starting charge=   -0.000387

     starting charge    7.99992, renormalised to    8.00000

     negative rho (up, down):  3.869E-04 0.000E+00
     Starting wfc are    8 randomized atomic wfcs

     total cpu time spent up to now is       41.3 secs

     per-process dynamical memory:   430.8 Mb

     Self-consistent Calculation

     iteration #  1     ecut=   110.00 Ry     beta=0.50
     Davidson diagonalization with overlap
     ethr =  1.00E-02,  avg # of iterations =  2.0

     negative rho (up, down):  1.826E-04 0.000E+00

     total cpu time spent up to now is       41.8 secs

     total energy              =     -16.01948403 Ry
     Harris-Foulkes estimate   =     -16.41265638 Ry
     estimated scf accuracy    <       0.69847877 Ry

     iteration #  2     ecut=   110.00 Ry     beta=0.50
     Davidson diagonalization with overlap
     ethr =  8.73E-03,  avg # of iterations =  2.0

     negative rho (up, down):  9.547E-05 0.000E+00

     total cpu time spent up to now is       42.4 secs

     total energy              =     -16.15329592 Ry
     Harris-Foulkes estimate   =     -16.17233008 Ry
     estimated scf accuracy    <       0.04967719 Ry

     iteration #  3     ecut=   110.00 Ry     beta=0.50
     Davidson diagonalization with overlap
     ethr =  6.21E-04,  avg # of iterations =  1.0

     negative rho (up, down):  5.016E-06 0.000E+00

     total cpu time spent up to now is       42.7 secs

     total energy              =     -16.15148720 Ry
     Harris-Foulkes estimate   =     -16.15693874 Ry
     estimated scf accuracy    <       0.01145079 Ry

     iteration #  4     ecut=   110.00 Ry     beta=0.50
     Davidson diagonalization with overlap
     ethr =  1.43E-04,  avg # of iterations =  2.0

     negative rho (up, down):  4.922E-06 0.000E+00

     total cpu time spent up to now is       43.4 secs

     total energy              =     -16.15339928 Ry
     Harris-Foulkes estimate   =     -16.15554542 Ry
     estimated scf accuracy    <       0.00497846 Ry

     iteration #  5     ecut=   110.00 Ry     beta=0.50
     Davidson diagonalization with overlap
     ethr =  6.22E-05,  avg # of iterations =  1.0

     negative rho (up, down):  1.643E-06 0.000E+00

     total cpu time spent up to now is       43.7 secs

     total energy              =     -16.15358562 Ry
     Harris-Foulkes estimate   =     -16.15381137 Ry
     estimated scf accuracy    <       0.00039671 Ry

     iteration #  6     ecut=   110.00 Ry     beta=0.50
     Davidson diagonalization with overlap
     ethr =  4.96E-06,  avg # of iterations =  3.0

     total cpu time spent up to now is       44.2 secs

     total energy              =     -16.15381909 Ry
     Harris-Foulkes estimate   =     -16.15387870 Ry
     estimated scf accuracy    <       0.00014257 Ry

     iteration #  7     ecut=   110.00 Ry     beta=0.50
     Davidson diagonalization with overlap
     ethr =  1.78E-06,  avg # of iterations =  2.0

     total cpu time spent up to now is       44.8 secs

     total energy              =     -16.15383412 Ry
     Harris-Foulkes estimate   =     -16.15383707 Ry
     estimated scf accuracy    <       0.00000609 Ry

     iteration #  8     ecut=   110.00 Ry     beta=0.50
     Davidson diagonalization with overlap
     ethr =  7.62E-08,  avg # of iterations =  2.0

     total cpu time spent up to now is       45.3 secs

     End of self-consistent calculation

          k = 0.0000 0.0000 0.0000 ( 65842 PWs)   bands (ev):

   -16.8446  -9.4340  -9.2289  -9.1105

     highest occupied level (ev):    -9.1105

!    total energy              =     -16.15383566 Ry
     Harris-Foulkes estimate   =     -16.15383583 Ry
     estimated scf accuracy    <       0.00000047 Ry

     The total energy is the sum of the following terms:

     one-electron contribution =     -40.28570867 Ry
     hartree contribution      =      20.97042176 Ry
     xc contribution           =      -6.34810212 Ry
     ewald contribution        =       9.50955337 Ry

     convergence has been achieved in   8 iterations

     Forces acting on atoms (Ry/au):

     atom    1 type  1   force =    -0.00374449    0.01306063    0.02281853
     atom    2 type  1   force =    -0.01277319   -0.00467500    0.00430593
     atom    3 type  1   force =     0.00852576    0.00359206   -0.00213932
     atom    4 type  1   force =     0.00121886   -0.01324877    0.01686504
     atom    5 type  2   force =     0.00677306    0.00127107   -0.04185018

     Total force =     0.057091     Total SCF correction =     0.000133


     entering subroutine stress ...

          total   stress  (Ry/bohr**3)                   (kbar)     P=   -0.08
   0.00000303   0.00000192   0.00000152          0.45      0.28      0.22
   0.00000192  -0.00000076  -0.00000653          0.28     -0.11     -0.96
   0.00000152  -0.00000653  -0.00000390          0.22     -0.96     -0.57


     init_run     :     18.37s CPU     18.41s WALL (       1 calls)
     electrons    :      3.98s CPU      4.04s WALL (       1 calls)
     forces       :      0.89s CPU      0.89s WALL (       1 calls)
     stress       :      1.10s CPU      1.10s WALL (       1 calls)

     Called by init_run:
     wfcinit      :      0.21s CPU      0.21s WALL (       1 calls)
     potinit      :      0.96s CPU      0.97s WALL (       1 calls)

     Called by electrons:
     c_bands      :      1.76s CPU      1.77s WALL (       8 calls)
     sum_band     :      0.43s CPU      0.45s WALL (       8 calls)
     v_of_rho     :      1.77s CPU      1.80s WALL (       9 calls)
     mix_rho      :      0.20s CPU      0.21s WALL (       8 calls)

     Called by c_bands:
     init_us_2    :      0.04s CPU      0.04s WALL (      17 calls)
     regterg      :      1.73s CPU      1.74s WALL (       8 calls)

     Called by sum_band:

     Called by *egterg:
     h_psi        :      1.88s CPU      1.88s WALL (      24 calls)
     g_psi        :      0.01s CPU      0.01s WALL (      15 calls)
     rdiaghg      :      0.00s CPU      0.00s WALL (      23 calls)

     Called by h_psi:
     add_vuspsi   :      0.00s CPU      0.00s WALL (      24 calls)

     General routines
     calbec       :      0.77s CPU      0.77s WALL (      29 calls)
     fft          :      1.70s CPU      1.74s WALL (     106 calls)
     fftw         :      1.11s CPU      1.13s WALL (     116 calls)

     Parallel routines
     fft_scatter  :      1.12s CPU      1.16s WALL (     222 calls)

     PWSCF        :    47.20s CPU        47.36s WALL


   This run was terminated on:  18:31:22  22Sep2019            

=------------------------------------------------------------------------------=
   JOB DONE.
=------------------------------------------------------------------------------=
