LAMMPS data file via write_data, version 29 Sep 2021, timestep = 100000

432 atoms
2 atom types

0.13116195752337667 16.368838042477247 xlo xhi
0.1319568784785634 16.468043121521966 ylo yhi
0.13116195752337667 16.368838042477247 zlo zhi

Masses

1 15.999
2 1.00784

Atoms # atomic

301 1 1.6164358410611948 3.5633594991485347 2.0877416825812025 0 0 0
303 2 2.046711020286728 3.045566826103811 1.360666691470096 0 0 0
359 2 0.17198853979800077 3.874202394601326 1.343684619776098 0 0 1
380 2 3.7939401641768193 1.143274071964762 1.9527020037637586 0 0 1
38 2 1.14273304629665 2.6248874337635493 3.346687183309299 0 0 1
379 1 4.396181630084599 0.39448262369490433 2.0605282217993945 0 0 1
59 2 3.650264153670539 15.232164238324447 2.744491524401229 0 0 0
172 1 6.6369242230351615 1.7750845305770298 2.971968305930886 0 0 0
173 2 6.68848837675371 2.627097173302658 3.403576073416253 0 0 0
174 2 6.772565745193576 0.9823497680745554 3.635704393344268 0 0 0
422 2 6.373459395949199 16.03851497715368 0.44843557642816656 0 0 1
381 2 5.0151838762404655 0.8794418100241267 2.6302724046116315 0 0 1
297 2 8.259438698561915 1.5001547501017714 1.814780004328553 0 0 0
296 2 9.601783922695992 1.9927618116546493 1.235781805081746 0 0 0
295 1 9.212026407840813 1.312742518031985 1.7446369151825456 0 0 0
21 2 9.741338169586681 2.093706106748588 3.324613195796743 0 0 0
42 2 10.66202203299771 15.880727264371483 1.5030139139662804 0 0 0
131 2 12.119134116523698 1.5736445609395846 2.431428257520416 0 0 0
96 2 12.835576535395818 3.483302287465791 2.2200471245389464 0 0 1
130 1 12.166517923526937 2.007124254926756 1.5606826911182148 0 0 0
132 2 12.785941459705365 1.5688372704733362 0.9632764612410897 0 0 0
358 1 15.5106742673866 4.178769960623135 0.9475188035861416 -1 0 1
360 2 15.518230818434565 3.904930083932777 16.247016268680596 -1 0 0
94 1 13.35365693706412 4.266152442895655 2.5355812681751626 0 0 1
95 2 14.182728965856741 4.369443800794027 1.9826868672497935 0 0 1
302 2 2.314797214957974 4.090609500918686 2.55732413690673 0 0 0
264 2 0.2571372694867141 5.74684601987924 0.24842599988353808 1 1 1
2 2 0.9509643089057003 7.355932472512905 2.1400576182181803 0 0 0
262 1 0.3218440855771645 6.6711584018718995 0.24723562882409933 1 1 1
105 2 3.3127228348727624 4.968796777510705 4.0620670556935625 0 0 0
103 1 3.674319010909036 4.808036091410888 3.179973717046491 0 0 0
104 2 3.897831231755584 5.6214892141491 2.7531528277845654 0 0 0
1 1 0.9559602429016419 7.553859474712974 3.1014273291652437 0 0 0
53 2 0.6790923843838117 6.34082811453786 4.290972903129333 1 0 1
175 1 6.403111258938679 4.274031676924953 4.077125923999171 0 0 0
176 2 7.083828527717162 4.740661652118268 3.498754152900239 0 0 0
177 2 5.483344377523397 4.6186700306713435 3.8482612987927145 0 0 0
244 1 4.74233717584928 6.989038095751252 1.8799475786592779 0 0 0
245 2 5.696021621260209 6.905139516172598 1.7893024827730912 0 0 0
148 1 7.536384877078076 7.499646736845477 1.5795010804194483 0 0 0
246 2 4.652661385342248 7.778569325707706 2.422139623688617 0 0 0
149 2 7.8287974119231425 8.439402177634067 1.3866699279877233 0 0 0
150 2 8.200915444985046 7.145031988818707 2.173496233565278 0 0 0
257 2 8.88875519812874 4.661053982412605 2.1393325688971525 0 0 0
256 1 8.396205743014836 5.1208498951272325 2.86272768931961 0 0 0
258 2 8.965471292351857 5.2080839311722995 3.606805050850583 0 0 0
71 2 11.034375836941315 6.017337207662017 4.481373684065437 0 0 1
300 2 12.109019117232364 6.307609466878743 1.3306970117525347 0 0 1
298 1 11.839416890894459 6.20638788634936 0.3738013306972621 0 0 1
109 1 12.493832198205757 6.765701295353247 3.1933321428870447 0 0 0
110 2 12.834550498182276 5.789607349541114 3.2026762870742846 0 0 0
111 2 13.297815685966308 7.280773732339642 3.1686812901407926 0 0 0
3 2 16.252638872536785 8.131238180221033 3.047242595400383 -1 0 0
337 1 14.776161480972934 8.557527478824579 2.9803906864874325 -1 0 0
338 2 14.50891388601753 8.747534158925923 2.0643503958713585 -1 0 0
306 2 1.595125876854539 9.005030309001723 3.165959843197651 0 0 1
305 2 1.783697403668014 10.421283396463751 2.6387930971492906 0 0 1
304 1 2.064248515877863 9.864086677408475 3.371933636069175 0 0 1
50 2 3.83760876547368 9.643209268195003 3.279022129033096 0 0 0
120 2 0.2618579871259197 10.802379424335744 0.3012174002401906 0 0 0
352 1 3.8988285778806637 11.338433445286004 1.2801237145735724 0 0 0
353 2 4.209351621954658 11.83948966408147 2.078584821717451 0 0 0
432 2 6.041572775213252 10.973790411617989 3.170125005327244 0 0 0
431 2 7.338120406865833 11.869012589937963 3.138294333062987 0 0 0
49 1 4.79527417558073 9.4180893605501 3.382142760994301 0 0 0
51 2 4.788968179129645 8.776953098505453 4.135680931137958 0 0 0
153 2 11.285236777361993 11.638769589076514 1.237460965290712 0 -1 0
151 1 10.406854901199974 11.791441487123167 0.8369026914176193 0 -1 0
29 2 9.412091819720104 12.315881836987476 2.2322396713810866 0 0 1
152 2 10.626270432072666 12.298898694555499 16.28473918674763 0 -1 -1
372 2 9.538862879047457 10.403697298886838 0.3364096655976532 0 0 0
393 2 12.296158510875133 11.341204740451184 3.1600870639016665 0 0 0
391 1 12.753091682980914 11.477503821148943 2.283657757949957 0 0 0
28 1 9.064210796913903 12.238591733112477 3.130994059068672 0 0 1
392 2 13.458981812888466 12.174302161066372 2.3130018875914735 0 0 0
339 2 14.857863970649303 9.403817804854869 3.4709090438975685 -1 0 0
355 1 13.645371709432698 9.528367526434542 0.5203925220654599 -1 0 1
356 2 14.454658735833377 9.91487251711867 16.29846809756171 -1 0 0
357 2 13.270113426592166 10.23041301043787 1.0644519597908424 -1 0 1
202 1 0.8136087368587319 11.633093876863207 1.6177394060042352 0 0 1
354 2 3.7347152059573054 11.97455615703799 0.6458755672236886 0 0 0
204 2 16.16589078332943 12.017537810501768 1.9226116524219972 -1 0 1
332 2 2.487707967606121 14.138080159012928 1.4071969578441608 1 0 0
331 1 2.0649821658894174 13.838957279125367 0.5424330329175274 1 0 0
333 2 2.7704655056561367 14.022592339679461 16.137968013360116 1 0 -1
58 1 3.5044863614435915 14.277401643460584 2.877461428882856 0 0 0
203 2 1.2232814015486553 12.358822492286235 1.1364344881156179 0 0 1
320 2 1.2895342170651733 15.310879506006184 0.30116037767971554 1 -1 0
319 1 1.0128699353769957 16.141231308650454 16.11187172925414 1 -1 -1
60 2 2.9911140489799735 14.122873033013745 3.754088564235995 0 0 0
430 1 6.345787731771181 11.923634147076298 3.003602871378049 0 0 0
30 2 8.984071529317989 13.070074285370849 3.5501049412758037 0 0 1
40 1 11.078716006801582 15.07042476733256 1.2519097279755307 0 0 0
41 2 10.375151542369304 14.6605449872449 0.7536344799355977 0 0 0
155 2 12.511293648339262 14.833551547921312 0.7689937187829128 0 -1 0
197 2 14.825601729972748 13.464253720089205 3.3227359692611076 0 0 1
198 2 14.467704888406452 13.792748112688546 1.8381427300129478 0 0 1
196 1 14.855424082996395 13.113567142812473 2.415772882840055 0 0 1
37 1 0.880630028700453 2.299336969511392 4.213099945886642 0 0 1
408 2 2.1089578544141045 2.322075691196816 5.476213635156627 0 0 0
406 1 2.6506592116362384 2.415631920653422 6.310034857926023 0 0 0
407 2 3.4531349087979293 1.860162027923085 6.0705244021734766 0 0 0
279 2 1.8539624190089876 3.6129136477531167 7.54078605145739 0 0 0
39 2 16.273533154200223 2.7891939435820334 4.499445073306971 -1 0 1
285 2 0.638046006041469 0.5960507204371686 4.918696023496526 0 1 0
5 2 5.411744217007042 1.3581223372760314 7.402437791552936 0 0 0
4 1 4.848765087094768 0.8034984454090324 6.790732016628541 0 0 0
412 1 6.318841934899562 2.2166586874270484 8.355080621148682 1 0 0
414 2 7.278781466558347 2.0384039027302703 8.231366860724584 1 0 0
399 2 5.895172425932107 0.22394698384344025 5.625941401984986 1 1 0
102 2 8.300729391711043 0.22362925078981938 5.12679972644597 0 0 0
19 1 10.272575308029802 2.387150928949472 4.086038843336332 0 0 0
20 2 9.977526948497356 3.2433678566960014 4.319378408275975 0 0 0
101 2 9.614985836113181 1.1184605462981052 5.194257128144455 0 0 0
378 2 11.990773631312583 2.297178802702921 5.930281961406763 0 1 0
267 2 14.323573992004746 3.8900881060183607 3.8892388954646724 0 0 0
216 2 16.019064188862473 1.0718221331189914 7.069670838352635 -1 1 0
214 1 15.683556107398957 1.578991169633321 7.837612967516697 -1 1 0
377 2 12.841608875719476 2.6093873541073536 7.07268561671886 0 1 0
376 1 12.676902447568892 2.927964315272571 6.127007831701303 0 1 0
44 2 13.897782913723686 1.3482289996509624 8.157637569591715 -1 1 0
45 2 12.335826986034903 1.113035101944487 8.394463402391839 -1 1 0
266 2 14.35448446322298 3.3599570097085434 5.3668642552467745 0 0 0
265 1 14.886647761147183 3.854294755677239 4.7102250790073485 0 0 0
329 2 3.1558465154830246 4.114008547426705 5.747453388417003 0 0 0
328 1 2.949945890902424 5.063571204103306 5.545772958859745 0 0 0
330 2 2.008220402008006 5.22699465080366 5.457072096542253 0 0 0
52 1 0.4539524438026511 5.771172685598494 5.1046161198255815 1 0 1
219 2 3.970940378477527 6.939085223011267 5.166169302178129 0 0 0
185 2 0.5464756196745643 6.588323912371141 6.745385104930643 1 0 0
184 1 0.816431653093456 6.9945980309897395 7.589827197194523 1 0 0
317 2 6.360976444403385 5.570567884119893 6.990904954712107 0 1 0
318 2 6.470573226894342 5.432633957168871 5.430328575405217 0 1 0
316 1 6.596730674330882 6.11666480928973 6.144912815648655 0 1 0
218 2 5.254405004544384 7.100504591842655 5.92728001343417 0 0 0
217 1 4.519358052660416 7.625264904216646 5.561972519649806 0 0 0
122 2 8.175622629997507 7.205722362817475 5.860601323524402 0 0 0
88 1 11.074970026030512 5.0333382734030785 7.6123342797059665 0 0 0
89 2 11.369438629748977 4.271454236705529 7.044090448411435 0 0 0
121 1 8.846638252631239 7.919070587564118 6.068353763852788 0 0 0
70 1 10.374748704417266 5.376617087319089 4.839518370510706 0 0 1
72 2 10.362719992169902 5.505333839215266 5.822562714617807 0 0 1
90 2 11.864715044648957 5.59249405875008 7.503534835777734 0 0 0
123 2 8.847626791642432 7.926945730494226 7.011189059789587 0 0 0
272 2 11.273928554623582 8.374641866335025 4.217019652126563 0 0 0
271 1 10.594060811804539 9.033154716485164 4.414132012949946 0 0 0
273 2 10.068119755893246 8.525860271126993 5.072866467290257 0 0 0
54 2 16.103547528851692 5.0275708753531685 4.953586819321882 0 0 1
8 2 13.35525594465407 5.470223382497489 6.128242694950685 -1 0 0
7 1 13.491186195387705 6.139611486423305 6.850151694970521 -1 0 0
186 2 0.3353395991800193 6.367943552959487 8.17574494706565 1 0 0
9 2 14.16299168166805 5.83732916347642 7.4603816278884505 -1 0 0
85 1 3.389813865328275 9.857517728281413 7.418814668640399 0 0 0
62 2 1.8672567080438687 10.958626471593838 5.021820097788567 1 0 0
63 2 2.1989560743304937 10.666212544667943 6.5083520844831595 1 0 0
61 1 1.663858748898834 11.254347109734722 5.929652987755129 1 0 0
87 2 3.828181862658974 9.290662024087057 6.7897574105881215 0 0 0
402 2 0.3949751942385039 12.238150328795886 6.453082613275232 0 0 0
86 2 2.9259233390266233 9.303115394218146 8.039680534280802 0 0 0
206 2 7.610472530257459 11.859255064116978 6.421946520042078 0 0 0
205 1 6.975532255904989 12.43436919157622 6.967882555979853 0 0 0
239 2 4.367283977403937 10.898138084408796 8.188166647141838 0 0 0
351 2 9.023570666863472 11.304103101470067 4.5236340520259 0 0 0
350 2 8.802477522718407 9.968431118245995 5.437458460074447 0 0 0
349 1 8.81608421362574 10.921707525349625 5.480685922922884 0 0 0
136 1 12.141312261230404 11.241056104566205 4.929442840504142 0 -1 0
137 2 11.557775933568148 10.446887757707572 4.775005178637491 0 -1 0
395 2 10.860860401981958 10.968698931331437 6.9449419046630325 0 0 0
324 2 0.816145048528757 8.575426510378492 7.9508612352543055 1 0 0
138 2 13.010903212171938 10.936389153538741 5.092442934874592 0 -1 0
84 2 14.460303134435453 9.766648534590159 5.977209831857893 0 1 0
83 2 15.037825025151506 11.130338663708933 5.592305163152878 0 1 0
82 1 14.648436457332155 10.3213751284359 5.2096499284941356 0 1 0
400 1 15.750303629438923 12.461973373530375 6.874478601986056 -1 0 0
225 2 15.716953833837563 12.380510498578543 8.59315184549792 0 0 0
345 2 13.80384965081378 7.696918119793541 6.863142435976813 0 0 0
224 2 14.927950878984712 11.670567024788369 9.832686367168044 0 0 0
343 1 13.79287232788275 8.651039280676436 7.1148604534349635 0 0 0
223 1 15.636863076327456 12.293647882628973 9.618275318000219 0 0 0
183 2 2.4683712778070555 13.184013525125916 5.706515547736851 1 0 0
284 2 1.054525724409789 15.704021905595216 5.839543127045046 0 0 0
181 1 2.694031856103727 14.04356825927115 5.370972580107258 1 0 0
182 2 3.3000344841655203 14.431265530283001 6.057004707196216 1 0 0
283 1 0.3412539698009177 16.274559873296532 5.59656021377975 0 0 0
6 2 4.206577757488922 0.3804636235961283 7.439863400486224 0 0 0
207 2 6.367976547724202 12.826452556837824 6.259737335514693 0 0 0
369 2 6.003686323327027 12.877191942661224 4.171095779126289 0 -1 0
368 2 4.725460928160673 13.626466043156181 4.826168965738316 0 -1 0
397 1 6.4704568516566665 16.12250537191894 4.9666278178235075 1 0 0
367 1 5.683937397363693 13.524970582015529 4.858158631997113 0 -1 0
398 2 6.216723735955344 15.140342018303533 4.912662669016245 1 0 0
179 2 8.996073308888269 15.683148736346274 7.3697402335016164 0 -1 0
100 1 9.124233471659405 0.3396841742430323 5.601746226114485 0 0 0
114 2 8.895361595329096 13.810213527906832 5.710949871867442 0 -1 0
113 2 9.390337073639465 15.154273213012218 5.148993657198747 0 -1 0
75 2 11.24249681814676 13.83894570309072 5.9194873505997805 0 -1 0
112 1 9.491499425691188 14.177335993817856 5.041230553035504 0 -1 0
73 1 11.979457482955029 13.446903458818108 6.320930773907939 0 -1 0
74 2 12.133855490367536 12.655330779920423 5.712117031168465 0 -1 0
180 2 10.251088908273267 15.330129228288728 8.289522249197558 0 -1 0
15 2 12.085328792380842 14.096490430389892 8.004024399968994 0 0 0
424 1 14.736304775479605 14.237374579252373 5.244440090618607 0 -1 0
426 2 15.258249102003171 15.054484993305339 5.191641974506949 0 -1 0
401 2 15.281900292063172 13.078363519210097 6.301507723015212 -1 0 0
425 2 13.894085624806813 14.463656754883106 5.683421600792637 0 -1 0
13 1 12.190007073435671 14.954495171929723 8.446412902484647 0 0 0
277 1 1.2226421517414554 3.6714000748603297 8.321972081783382 0 0 0
215 2 16.32989745159699 2.316956905418681 7.95488246868192 -1 1 0
278 2 1.870530242621307 3.468972294684851 9.075353157255892 0 0 0
419 2 5.850321684091391 3.899522034512707 8.689011234534645 0 0 0
31 1 5.41430636566133 1.9363623540772426 11.014892714112268 0 1 0
32 2 6.020946209998714 2.555634840337748 11.449005012290511 0 1 0
413 2 6.197390373001423 2.013284798090795 9.283134550013216 1 0 0
409 1 7.36479304246472 2.910107914333573 12.356562404564203 0 0 0
410 2 7.669524326609343 3.8099150302249143 12.184668249710823 0 0 0
33 2 4.678657809303332 2.4806113512423136 10.735588749374028 0 1 0
163 1 8.921708446174023 2.0895119150044095 9.078508062484444 0 1 0
164 2 9.496084234712004 2.4883975264233085 9.74849834707941 0 1 0
165 2 9.3526397966412 1.2687043799544422 8.834277470147846 0 1 0
411 2 8.131049792822436 2.481942597845884 11.939520849595944 0 0 0
416 2 10.710469929794897 1.5806780356824977 12.358199326239022 0 0 0
162 2 11.726112696406856 3.1649773144769635 10.75454891384637 0 1 0
415 1 9.921839580399432 1.900125284205274 12.847010009822375 0 0 0
160 1 12.117371666966397 2.3227441025952875 10.939714504783824 0 1 0
229 1 10.788293320969453 4.5694445258903675 10.235416934385666 0 0 -1
43 1 13.026680083813938 1.7339519228162033 8.400172161959196 -1 1 0
161 2 12.511430380485526 1.977340989100554 10.122269259833184 0 1 0
308 2 13.211203147121374 2.306329849557844 12.494322673296896 0 1 0
389 2 3.487071937284223 4.238605277562275 11.158368227653284 0 0 0
275 2 4.227721738666716 6.437514652869964 8.63575592052323 0 0 0
388 1 3.475268306518788 3.8009555534115846 10.252297874932585 0 0 0
274 1 3.484928826669929 7.03482994207649 8.94925195056801 0 0 0
276 2 2.7782509163083065 6.88564836558727 8.355024214628235 0 0 0
390 2 4.057035800533159 4.341327290905394 9.703836093508926 0 0 0
78 2 1.6688021376802697 7.335381697520052 11.65517635853362 0 0 0
418 1 5.476593636141084 4.81427907609969 8.492227587675425 0 0 0
420 2 5.934473772451204 5.46079883759822 9.071833106813292 0 0 0
221 2 7.1203264874338945 6.527803764032476 10.336171369197801 0 0 0
220 1 6.384228616779465 6.953581514606309 9.762341560794118 0 0 0
222 2 6.4035616244948645 7.93539732668437 9.90761862224971 0 0 0
375 2 5.820204172089801 7.189848639946756 12.923859820989732 0 0 0
231 2 10.915227411268175 4.760124790504512 9.26073022950713 0 0 -1
211 1 8.183287061803526 5.589926329162921 11.478446504178248 0 0 0
212 2 8.965625271338254 5.327270009809157 10.986693706704902 0 0 0
230 2 11.101558085054268 5.389601395828259 10.786934795480771 0 0 -1
65 2 11.357171963237404 7.222929222245114 11.516494714843226 -1 0 0
145 1 9.87445378812904 7.9999247280726316 11.533927696142174 0 0 0
64 1 11.897201317912725 6.41333486700484 11.785947653146831 -1 0 0
147 2 9.454109727218107 7.972530852143447 10.578818570734606 0 0 0
315 2 15.898797613651794 4.671570066841541 8.692553568607694 0 1 0
313 1 15.24277872773823 5.457390681555799 8.674792202768563 0 1 0
314 2 15.081169297548344 5.7176332324290735 9.609439309688106 0 1 0
348 2 15.070837423486664 6.424668275754191 11.81722567523252 0 0 0
346 1 14.690753568185253 6.567389547217503 10.878713714206711 0 0 0
66 2 12.754894569585831 6.423206830024484 11.29472787486799 -1 0 0
347 2 14.954109649101577 7.4508093554037265 10.510927541939802 0 0 0
135 2 2.8697263522833527 8.180897550984833 10.082266922384566 0 0 0
133 1 2.5194155807040937 8.953964803949233 10.586269821022661 0 0 0
134 2 2.982565911449791 8.951957628140594 11.46761628940683 0 0 0
56 2 1.9642850946884773 10.425935270580961 10.03764788399185 0 0 0
55 1 1.8576448960735843 11.42557490564684 10.085037306666898 0 0 0
57 2 0.9958859544927283 11.68875173610798 9.905521147455547 0 0 0
208 1 3.8409372198138785 9.229044005879526 12.832724850867379 0 0 0
240 2 5.726962633795945 11.569537794502013 8.087552062308468 0 0 0
253 1 6.690338263738892 9.48047195511488 10.043513165396257 0 0 0
254 2 6.610047672958882 9.863723119815386 10.893210448796896 0 0 0
238 1 5.063391216667743 11.35709867986021 8.758505939123253 0 0 0
255 2 6.225814041665468 10.042337931687298 9.455739651437774 0 0 0
336 2 7.2510896921157055 12.085617860712176 12.4762096651239 0 0 0
24 2 4.590163320598189 12.81535374935033 9.439432087411655 0 0 0
209 2 4.481968534002157 9.969839091824179 12.763209877849206 0 0 0
403 1 5.85937723189891 11.383386922095308 12.898287000838513 0 0 0
396 2 11.846343353356243 10.076030482408257 7.6822605906792125 0 0 0
394 1 11.029831020065409 10.528943006139496 7.819855171356487 0 0 0
334 1 8.031274323909246 12.600349751315811 12.261249659238318 0 0 0
25 1 9.186703919860758 8.398986531476933 8.908505232868368 0 0 0
27 2 9.846316543049426 9.10253745510357 8.777467938940612 0 0 0
26 2 8.404464991329567 8.846601499455282 9.196270718115938 0 0 0
146 2 9.696580543960025 8.92895063166231 11.72701419519413 0 0 0
289 1 11.218125961175419 12.002523793588058 10.262957331768742 0 0 0
290 2 10.959418953178181 11.639811896638175 9.438814233441114 0 0 0
291 2 10.626066883965349 11.544659302333079 10.936153424863338 0 0 0
322 1 0.7882010305619984 9.50864518260787 8.12758874484783 1 0 0
323 2 0.6652380840085099 9.916888325390632 7.292092202453367 1 0 0
344 2 14.068268722404225 8.559068261821338 8.033255648324158 0 0 0
241 1 14.847085766100411 8.97150400187659 9.649072804145781 0 0 0
242 2 15.566068505178727 9.296483336316966 9.100281123285512 0 0 0
269 2 12.797617356274223 11.382237416967245 11.034939548361468 0 0 -1
243 2 14.521272677473124 9.7437811568252 10.194303000205638 0 0 0
268 1 13.696286784245137 10.932106837896304 11.110811243355597 0 0 -1
46 1 3.2408279963781528 15.337199941605437 8.194667812917647 0 0 0
48 2 2.3437008647713506 15.744736642598943 8.37778018315993 0 0 0
47 2 3.312310945490135 14.564029597653484 8.805870862668527 0 0 0
11 2 1.7372118063705064 11.877666874753777 11.774847423157354 0 0 0
366 2 0.8300972048424108 15.198108950327654 9.82965001342031 1 0 0
364 1 0.7504889313848337 15.594272403862329 8.91590988145668 1 0 0
23 2 3.0800372441615047 12.596333518697882 9.895881751371572 0 0 0
22 1 3.8066625460662324 13.332416903136158 9.929714960601226 0 0 0
365 2 0.31419397453536446 0.15221701241300706 9.071804927311057 1 1 0
117 2 5.964910431297225 16.446098583904437 10.871516181428154 0 0 0
116 2 6.76763585899509 15.014814505180963 10.788443343557796 0 0 0
195 2 7.203023805302299 13.268918093443556 8.744912186895293 0 0 0
69 2 4.362524569788668 13.783885353531128 11.66865282900231 0 0 0
115 1 6.495588850955828 15.78438237572098 11.334527119150824 0 0 0
178 1 9.305988588374477 15.397436165833954 8.20927775073228 0 -1 0
335 2 7.803911428009598 12.881396230886503 11.354601025811586 0 0 0
193 1 7.533433598498772 13.676094210557052 9.540287293455368 0 0 0
194 2 8.212562137741479 14.31028975880404 9.266187768925265 0 0 0
80 2 12.24793517957244 14.86990292814049 11.18467710507685 0 0 0
81 2 11.380654334342818 13.613383249348272 11.184445313915178 0 0 0
79 1 11.439369020849897 14.537379094560379 11.578875203732752 0 0 0
14 2 12.89704616504702 14.820205173075665 9.11202124311301 0 0 0
261 2 14.742209196682957 13.589679263610781 10.239779702255234 0 0 0
259 1 14.255504839801668 14.493314448076763 10.424701744226306 0 0 0
260 2 15.012443508933769 14.968221816609454 10.843776028853565 0 0 0
384 2 2.048243073930969 1.0821487596843962 16.258151627439894 0 1 0
382 1 2.4964188736816335 1.890360293997146 0.3787435592985207 0 1 1
383 2 3.457177906266905 1.8598329418431458 16.354502205254036 0 1 0
235 1 2.068314709487654 2.8336071639293676 13.879903658741995 0 0 0
233 2 2.3210736523699596 1.3087427723725258 13.016242065225757 0 1 0
236 2 2.7163091136778053 3.5291718292032845 13.581734837240676 0 0 0
237 2 2.406917779726922 2.433029321004107 14.6747305798701 0 0 0
232 1 2.503966335561331 0.5287853588616469 12.471149117221705 0 1 0
421 1 6.070107798425444 15.819851737577205 15.803367855921792 0 0 0
234 2 3.0008154289149975 0.8591941609834419 11.707755586019756 0 1 0
248 2 5.583291832746942 2.5395045113566996 14.965632988793676 0 0 0
249 2 5.415062578194791 1.1437074492278008 15.40240400187024 0 0 0
247 1 4.94993252531101 1.983457328132692 15.386690117926808 0 0 0
200 2 7.900409235718173 2.467192254338415 14.377741295025233 0 0 0
423 2 6.817277850921709 15.903749153989743 15.078879405696885 0 0 0
427 1 9.588779716527975 4.186742028226844 0.7910378638731015 0 0 0
417 2 10.011639116457989 2.86135624398117 12.835383113707472 0 0 0
201 2 8.070557522218175 1.7675974077864294 15.641407941496727 0 0 0
429 2 8.834153647829597 4.146046162813535 0.20218672912321978 0 0 0
199 1 7.994394869129218 2.646252930418471 15.339469684789961 0 0 0
385 1 14.44949836335529 0.801641325670876 16.31606529742011 0 0 -1
386 2 15.377034186112033 0.5714247080505376 16.34292767395261 0 0 -1
288 2 0.43769437502919545 3.460763230977398 14.068275924420222 1 1 0
387 2 14.286525823178227 1.0195926699790454 15.3855070742437 0 0 -1
286 1 15.778377149259779 3.8123397028871993 14.242695596727623 0 1 0
287 2 15.120599512538114 3.1443809958754096 13.94019828635214 0 1 0
307 1 13.41399972303705 2.2683504896863376 13.415458373489408 0 1 0
309 2 12.97180194488379 1.4312666586521492 13.777139347891417 0 1 0
167 2 12.01930439732036 3.7396405174549896 13.978854521350925 0 0 -1
263 2 0.9585616968577058 7.017095054416701 15.77435607093326 1 1 0
16 1 3.380152730590375 4.8119727557775365 12.667344563818341 1 0 0
18 2 4.214888880743408 5.191777454100899 13.043114870689717 1 0 0
17 2 2.8303356538216002 5.6453475175211505 12.61113333163631 1 0 0
76 1 1.823184949255904 7.009720463683704 12.62013447068611 0 0 0
77 2 0.9442485008010728 6.616233553806578 12.90208164748717 0 0 0
170 2 1.9554841805875642 8.091134379231347 14.060077414841272 0 0 0
93 2 6.972773523708245 6.113639181204209 16.29713396870263 0 0 0
91 1 6.943193561466056 5.564757792158175 15.511624181477027 0 0 0
373 1 5.2203306236108915 6.702083349027165 13.455288630623974 0 0 0
374 2 5.7516868208200025 6.483180198190527 14.232193007783469 0 0 0
92 2 7.677495735977363 5.920875085535174 14.972386490214257 0 0 0
428 2 10.346867020629661 4.589182515630309 0.37109386482217455 0 0 0
213 2 8.482900080657155 6.159114895377147 12.234470774482546 0 0 0
166 1 11.360375044281044 4.313984431247604 13.590229420588912 0 0 -1
168 2 11.781178747130532 5.044364922486042 13.05498633568536 0 0 -1
157 1 8.995258646624068 6.217317469604753 13.924364799516335 0 0 0
158 2 9.512511233073296 6.953659884975655 14.37525097073914 0 0 0
159 2 9.721177270739265 5.564703123688102 13.879211766348535 0 0 0
312 2 11.105907500082282 7.242662353540567 15.44460827734693 0 0 -1
299 2 12.682206148373409 6.21547128867574 16.1372288300689 0 0 0
129 2 13.719975848603958 7.85324001445061 15.62645047536537 -1 0 0
128 2 14.752753204937749 6.895260956171324 16.00679746514066 -1 0 0
292 1 15.531020220987127 6.244472911535331 13.232616164437584 -1 0 0
293 2 15.288062373142806 6.863650299100173 13.92630493771643 -1 0 0
294 2 15.553565421113419 5.332847772351713 13.587722129490817 -1 0 0
127 1 13.979656007226584 6.990854909468712 15.392062850401757 -1 0 0
169 1 1.818871717395109 8.490458928415471 14.977855620253779 0 0 0
171 2 2.665923186767886 8.495311630576659 15.443636389460472 0 0 0
119 2 0.5371419281499523 9.76819626073289 15.263420626445754 0 0 -1
342 2 3.1712518005692836 10.63290449922895 14.82839555437571 0 0 0
340 1 2.8733377297283993 11.547733911078792 14.839198435030436 0 0 0
341 2 3.641179888978495 12.13359981570499 14.691764593969596 0 0 0
12 2 1.8329610923991262 12.15633458792975 13.41508983573765 0 0 0
98 2 4.73979476373822 8.416190096227798 0.6728877826058025 0 0 1
97 1 4.510694527628095 9.086418090171364 16.234138000995685 0 0 0
99 2 4.268985574747826 9.92080447467916 0.5582613720766081 0 0 1
139 1 7.3002230840720825 8.561371154805993 12.665750296272659 0 0 0
140 2 7.289282608249382 9.088981219180207 13.46264005663671 0 0 0
210 2 4.251244434583857 8.457204086394203 13.280318581756385 0 0 0
124 1 6.821916372411592 9.849192589091581 14.926300079710327 0 0 0
125 2 6.119460632430193 9.428356250488244 15.377710735239752 0 0 0
404 2 5.9808375605371555 11.19277188265972 13.861234072705598 0 0 0
126 2 7.5351435660757975 10.032915664606444 15.55212392490477 0 0 0
405 2 5.3325159024486295 12.158685010707508 12.70370481833711 0 0 0
370 1 9.018015666244501 9.598625786826863 0.28562699868604213 0 0 0
326 2 9.318692368871083 11.319754856364264 12.480939821484016 0 0 0
310 1 10.583375713844609 7.9396357138974 14.951847289658772 0 0 -1
311 2 11.145528054138303 8.333875583947073 14.282615985030787 0 0 -1
371 2 9.555102829610437 8.915376112879708 16.082693565458456 0 0 -1
325 1 10.145038204003097 10.821738114185637 12.213907757590901 0 0 0
141 2 8.045166414082754 8.053339786362347 12.839826206996229 0 0 0
327 2 10.699160665779987 10.776511458250098 13.007889849782776 0 0 0
188 2 12.432141498801544 10.10561180571231 14.850385137055683 0 -1 -1
187 1 12.192193268861773 10.05232532849687 13.917970269081854 0 -1 -1
118 1 16.10685960595874 10.446457456825767 15.65530813912063 -1 0 -1
189 2 12.925438310903413 10.648209242297185 13.53987745570645 0 -1 -1
270 2 14.047749547267584 11.30853925363479 11.940521878584413 0 0 -1
251 2 15.472167017555993 11.439392282208418 14.26563808906679 -1 0 0
250 1 15.080858078753586 11.938793230199181 13.554729847638631 -1 0 0
252 2 15.868383808527176 12.225590895742906 13.082827613161863 -1 0 0
226 1 1.057544855575317 14.839364901917891 11.477225809499766 1 0 0
228 2 1.7543478189277133 15.477953520509775 11.89976567542048 1 0 0
10 1 1.3385738788563488 12.365289864741936 12.524357961998092 0 0 0
227 2 1.4116951658772405 13.961604838506696 11.6362170893254 1 0 0
34 1 4.570775115392084 13.560001241872431 15.452120884900275 1 0 0
192 2 16.111120691203006 14.944729292105544 13.408024939114666 0 0 0
321 2 0.6089520635367522 15.850011331438871 15.292236782579549 1 -1 -1
36 2 4.797282967048306 13.7717622258727 14.566553487149472 1 0 0
35 2 5.341105241812242 14.081884009928126 15.824654622856531 1 0 0
67 1 4.90594198991187 13.997361495434651 12.4918549892288 0 0 0
68 2 5.435213961874619 14.81248735702131 12.264887685372443 0 0 0
143 2 7.424984069918 16.328040545762235 13.003700028039242 0 0 0
142 1 7.735054759132593 16.24807889133735 13.895836200512957 0 0 0
361 1 11.553286639688706 13.072251259106519 15.13932674221003 0 -1 -1
144 2 8.535073758678264 15.71861760927818 13.854332885647683 0 0 0
363 2 12.314236359356235 13.578470500780146 15.453529353907381 0 -1 -1
281 2 8.927852477866654 13.947283438422375 13.351981304027728 0 -1 0
282 2 10.30594043478071 14.59990458217025 12.884133213304857 0 -1 0
362 2 11.120870859115259 13.613747669916618 14.472690902852225 0 -1 -1
280 1 9.638002399088816 14.55402851006945 13.633544468364235 0 -1 0
154 1 13.570043499302994 14.59431285146688 0.5229975820362482 0 -1 0
106 1 12.950784072580086 15.773458635763374 13.995035561401806 0 -1 -1
190 1 15.574516372648134 14.646015560683031 14.207260807247517 0 0 0
108 2 13.836046901349922 15.422927690247837 14.224788675602808 0 -1 -1
156 2 13.962101748038307 15.463341604318506 0.36324981349466356 0 -1 0
107 2 12.774439835832803 15.096464438568951 13.331216733331244 0 -1 -1
191 2 15.350415417481866 13.68647740835355 14.002963132014436 0 0 0

Velocities

301 0.7920005284326187 4.349007181442967 -2.9962941828921137
303 5.549780078392417 10.683027485311452 -15.758551569772168
359 18.9125250226841 4.330021176337102 6.331206701355807
380 -15.05915671773613 6.829453983169285 -13.267376936271878
38 1.3260191818884253 -5.292959888989228 -15.570535642162532
379 2.1614093181836354 -0.9027784635847572 -2.6786882807181644
59 -5.857599180752189 32.84131654166237 5.560830018230825
172 10.11957096963201 -1.7730740723599858 1.8753592812043078
173 -18.244975777839798 -4.748139953970227 2.673656492640845
174 -2.3273019498667993 -12.716618557819455 14.520344821692023