1.502726364135742188e+01 6.168771266937255859e+00 6.924481391906738281e-01 6.168771266937255859e+00 1.906326293945312500e+01 -4.063411712646484375e+00 6.924481391906738281e-01 -4.063411712646484375e+00 1.966595268249511719e+01
2.041840362548828125e+01 3.554649829864501953e+00 5.078755855560302734e+00 3.554649829864501953e+00 4.265616893768310547e+00 4.825606822967529297e+00 5.078755855560302734e+00 4.825606822967529297e+00 -5.555533409118652344e+00
-6.193055152893066406e+00 -9.257884025573730469e+00 -3.073696374893188477e+00 -9.257884025573730469e+00 2.791650295257568359e+00 4.288168430328369141e+00 -3.073696374893188477e+00 4.288168430328369141e+00 -1.993990325927734375e+01
-2.399264144897460938e+01 4.399757385253906250e+00 -2.372274398803710938e+00 4.399757385253906250e+00 -1.776642608642578125e+01 1.767036437988281250e+00 -2.372274398803710938e+00 1.767036437988281250e+00 2.101050138473510742e+00
-2.304991722106933594e+01 1.931875467300415039e+00 -9.909996032714843750e+00 1.931875467300415039e+00 -2.034131813049316406e+01 3.829479217529296875e+00 -9.909996032714843750e+00 3.829479217529296875e+00 -6.118475437164306641e+00
-4.195380401611328125e+01 4.982458114624023438e+00 -1.032314538955688477e+00 4.982458114624023438e+00 -1.409537601470947266e+01 5.303422212600708008e-01 -1.032314538955688477e+00 5.303422212600708008e-01 9.103602170944213867e-01
-2.209313201904296875e+01 7.309597134590148926e-01 -7.538086414337158203e+00 7.309597134590148926e-01 -3.343058013916015625e+01 1.249799060821533203e+01 -7.538086414337158203e+00 1.249799060821533203e+01 -1.474639797210693359e+01
-1.659066581726074219e+01 6.706886887550354004e-01 3.873857021331787109e+00 6.706886887550354004e-01 -2.415922164916992188e+01 -5.307713508605957031e+00 3.873857021331787109e+00 -5.307713508605957031e+00 -3.681906700134277344e+00
1.835904502868652344e+01 -2.395097494125366211e+00 5.682026147842407227e-01 -2.395097494125366211e+00 1.693232536315917969e+01 1.038674163818359375e+01 5.682026147842407227e-01 1.038674163818359375e+01 -5.056220531463623047e+00
-2.107528686523437500e+01 -4.851592540740966797e+00 -4.164130687713623047e+00 -4.851592540740966797e+00 -1.170187282562255859e+01 3.405865669250488281e+00 -4.164130687713623047e+00 3.405865669250488281e+00 -2.788306236267089844e+01
-2.504730606079101562e+01 1.371884346008300781e-01 4.413832187652587891e+00 1.371884346008300781e-01 -1.801745414733886719e+00 1.736516118049621582e+00 4.413832187652587891e+00 1.736516118049621582e+00 -1.200216770172119141e+01
-9.374877929687500000e+00 1.537261009216308594e-01 -8.814752697944641113e-01 1.537261009216308594e-01 -2.782316207885742188e+00 -5.812643527984619141e+00 -8.814752697944641113e-01 -5.812643527984619141e+00 -2.334738731384277344e+01
-1.100169086456298828e+01 3.193860352039337158e-01 -1.580785751342773438e+00 3.193860352039337158e-01 -8.429575920104980469e+00 -5.545078754425048828e+00 -1.580785751342773438e+00 -5.545078754425048828e+00 -4.778860092163085938e+00
3.267409896850585938e+01 6.609762668609619141e+00 4.133225917816162109e+00 6.609762668609619141e+00 1.854592704772949219e+01 -2.910713911056518555e+00 4.133225917816162109e+00 -2.910713911056518555e+00 2.231753158569335938e+01
1.929969489574432373e-01 1.188393592834472656e+01 3.190234899520874023e+00 1.188393592834472656e+01 1.425119590759277344e+01 6.488123416900634766e+00 3.190234899520874023e+00 6.488123416900634766e+00 1.743024063110351562e+01
-8.741748809814453125e+00 -7.958765029907226562e-01 -8.549119830131530762e-01 -7.958765029907226562e-01 -2.382480812072753906e+01 3.925634145736694336e+00 -8.549119830131530762e-01 3.925634145736694336e+00 -3.099928855895996094e+01
-3.935831451416015625e+01 -5.853421211242675781e+00 -8.871581077575683594e+00 -5.853421211242675781e+00 -3.034663963317871094e+01 1.402704048156738281e+01 -8.871581077575683594e+00 1.402704048156738281e+01 -7.657089233398437500e+00
-1.135902786254882812e+01 6.117311477661132812e+00 -1.358022570610046387e+00 6.117311477661132812e+00 -3.429172897338867188e+01 5.646529197692871094e+00 -1.358022570610046387e+00 5.646529197692871094e+00 -2.587277603149414062e+01
1.128879165649414062e+01 -2.931644953787326813e-02 -1.095716834068298340e+00 -2.931644953787326813e-02 1.057262611389160156e+01 4.079604148864746094e+00 -1.095716834068298340e+00 4.079604148864746094e+00 7.532275199890136719e+00
-1.201811599731445312e+01 -4.302736759185791016e+00 -2.707019090652465820e+00 -4.302736759185791016e+00 -6.012398719787597656e+00 -1.492833328247070312e+01 -2.707019090652465820e+00 -1.492833328247070312e+01 -2.250220298767089844e+01
-2.101011753082275391e+00 -1.122299358248710632e-01 1.199383544921875000e+01 -1.122299358248710632e-01 -1.899404144287109375e+01 -3.966298580169677734e+00 1.199383544921875000e+01 -3.966298580169677734e+00 -1.890313720703125000e+01
-1.844405746459960938e+01 -5.154649257659912109e+00 4.118935108184814453e+00 -5.154649257659912109e+00 -1.077993202209472656e+01 4.950773715972900391e+00 4.118935108184814453e+00 4.950773715972900391e+00 -1.172685718536376953e+01
3.342917263507843018e-01 -1.027054429054260254e+00 -1.092211365699768066e+00 -1.027054429054260254e+00 1.327852249145507812e+01 1.505664348602294922e+01 -1.092211365699768066e+00 1.505664348602294922e+01 6.617466449737548828e+00
1.762994766235351562e+01 -1.290376543998718262e+00 -9.655403137207031250e+00 -1.290376543998718262e+00 2.829351127147674561e-01 -6.680026650428771973e-02 -9.655403137207031250e+00 -6.680026650428771973e-02 1.001004409790039062e+01
1.655700874328613281e+01 -3.817347288131713867e+00 4.316858768463134766e+00 -3.817347288131713867e+00 1.759187889099121094e+01 -4.565162181854248047e+00 4.316858768463134766e+00 -4.565162181854248047e+00 1.674118232727050781e+01
1.840515327453613281e+01 -4.629652023315429688e+00 -9.024684906005859375e+00 -4.629652023315429688e+00 2.108103179931640625e+01 7.903032779693603516e+00 -9.024684906005859375e+00 7.903032779693603516e+00 1.777206611633300781e+01
-2.725348281860351562e+01 -1.026743316650390625e+01 -9.595054626464843750e+00 -1.026743316650390625e+01 -2.268432044982910156e+01 -3.093429088592529297e+00 -9.595054626464843750e+00 -3.093429088592529297e+00 -1.103030395507812500e+01
-1.245260810852050781e+01 1.760729193687438965e+00 -4.146771430969238281e+00 1.760729193687438965e+00 -2.023740005493164062e+01 5.479017257690429688e+00 -4.146771430969238281e+00 5.479017257690429688e+00 -2.200665855407714844e+01
-1.282764053344726562e+01 8.965333700180053711e-01 -6.418229103088378906e+00 8.965333700180053711e-01 -8.316521644592285156e+00 8.335949897766113281e+00 -6.418229103088378906e+00 8.335949897766113281e+00 4.765276908874511719e+00
-7.258648872375488281e+00 -4.828260898590087891e+00 -6.714231967926025391e+00 -4.828260898590087891e+00 -5.290003776550292969e+00 -1.330715656280517578e+01 -6.714231967926025391e+00 -1.330715656280517578e+01 -1.063880562782287598e+00
-3.478878402709960938e+01 9.652896881103515625e+00 8.752033233642578125e+00 9.652896881103515625e+00 -2.978127098083496094e+01 9.110942840576171875e+00 8.752033233642578125e+00 9.110942840576171875e+00 -2.076564598083496094e+01
-1.657004356384277344e+01 3.231173753738403320e+00 5.617086887359619141e+00 3.231173753738403320e+00 -1.553508186340332031e+01 2.206513166427612305e+00 5.617086887359619141e+00 2.206513166427612305e+00 -4.604913234710693359e+00
-4.849029183387756348e-01 -2.543016433715820312e+00 4.196304798126220703e+00 -2.543016433715820312e+00 1.292612648010253906e+01 -7.820970535278320312e+00 4.196304798126220703e+00 -7.820970535278320312e+00 -3.364616394042968750e+00
-2.013752555847167969e+01 -1.456437873840332031e+01 -7.715163230895996094e+00 -1.456437873840332031e+01 -2.686254310607910156e+01 -4.573097705841064453e+00 -7.715163230895996094e+00 -4.573097705841064453e+00 -1.192527389526367188e+01
-2.212425041198730469e+01 9.547567367553710938e+00 -5.234136804938316345e-02 9.547567367553710938e+00 -1.658928108215332031e+01 8.710861206054687500e-01 -5.234136804938316345e-02 8.710861206054687500e-01 -2.381402206420898438e+01
2.184636306762695312e+01 -2.404720783233642578e+00 -1.286128902435302734e+01 -2.404720783233642578e+00 1.192728042602539062e+01 6.319502353668212891e+00 -1.286128902435302734e+01 6.319502353668212891e+00 1.850965881347656250e+01
8.054284095764160156e+00 -1.545318961143493652e+00 -8.063409805297851562e+00 -1.545318961143493652e+00 1.123440647125244141e+01 -2.320662587881088257e-01 -8.063409805297851562e+00 -2.320662587881088257e-01 2.476081371307373047e+00
-2.320378494262695312e+01 -6.393028497695922852e-01 -1.210754203796386719e+01 -6.393028497695922852e-01 -1.041243267059326172e+01 1.963650822639465332e+00 -1.210754203796386719e+01 1.963650822639465332e+00 -4.168858718872070312e+01
-1.109264469146728516e+01 6.233254432678222656e+00 -1.048523616790771484e+01 6.233254432678222656e+00 -2.721797752380371094e+01 6.280705451965332031e+00 -1.048523616790771484e+01 6.280705451965332031e+00 -1.745204925537109375e+01
2.994412899017333984e+00 5.454068183898925781e+00 -8.529208898544311523e-01 5.454068183898925781e+00 -8.599501609802246094e+00 -5.892121791839599609e+00 -8.529208898544311523e-01 -5.892121791839599609e+00 -5.232344627380371094e+00
-8.471393585205078125e+00 1.421446919441223145e+00 -1.293201565742492676e+00 1.421446919441223145e+00 -8.705961227416992188e+00 6.355261206626892090e-01 -1.293201565742492676e+00 6.355261206626892090e-01 -1.665844726562500000e+01
-3.390249633789062500e+01 -4.348133563995361328e+00 -7.098194599151611328e+00 -4.348133563995361328e+00 -2.531745719909667969e+01 7.101362228393554688e+00 -7.098194599151611328e+00 7.101362228393554688e+00 -2.049027442932128906e+01
2.098307991027832031e+01 -8.375551223754882812e+00 -5.932089805603027344e+00 -8.375551223754882812e+00 -1.725803136825561523e+00 6.449215412139892578e+00 -5.932089805603027344e+00 6.449215412139892578e+00 2.245662117004394531e+01
-2.151271343231201172e+00 3.096977710723876953e+00 -3.393436193466186523e+00 3.096977710723876953e+00 -5.589213967323303223e-01 -2.684830904006958008e+00 -3.393436193466186523e+00 -2.684830904006958008e+00 1.584549045562744141e+01
1.412877368927001953e+01 -3.759898185729980469e+00 -8.474097251892089844e+00 -3.759898185729980469e+00 2.453331708908081055e+00 1.713316917419433594e+00 -8.474097251892089844e+00 1.713316917419433594e+00 1.239892864227294922e+01
-3.608596801757812500e+00 -2.059515953063964844e+00 3.061460256576538086e+00 -2.059515953063964844e+00 -1.643618392944335938e+01 8.712033033370971680e-01 3.061460256576538086e+00 8.712033033370971680e-01 -1.740095329284667969e+01
-1.014155864715576172e+01 -7.897044420242309570e-01 -1.598040819168090820e+00 -7.897044420242309570e-01 -1.514660549163818359e+01 -7.427857398986816406e+00 -1.598040819168090820e+00 -7.427857398986816406e+00 -9.894588470458984375e+00
-1.166347312927246094e+01 3.096324205398559570e+00 -2.412446498870849609e+00 3.096324205398559570e+00 -1.781662559509277344e+01 -2.726975202560424805e+00 -2.412446498870849609e+00 -2.726975202560424805e+00 -8.492636680603027344e+00
-9.955459594726562500e+00 3.259296178817749023e+00 -3.095119237899780273e+00 3.259296178817749023e+00 -2.307066345214843750e+01 -1.071446061134338379e+00 -3.095119237899780273e+00 -1.071446061134338379e+00 -1.694372367858886719e+01
2.172065544128417969e+01 7.703880786895751953e+00 -3.993397951126098633e+00 7.703880786895751953e+00 1.965044212341308594e+01 -3.784358739852905273e+00 -3.993397951126098633e+00 -3.784358739852905273e+00 1.008510684967041016e+01
-3.185903787612915039e+00 1.065520191192626953e+01 1.095301818847656250e+01 1.065520191192626953e+01 -1.414175319671630859e+01 -8.023543357849121094e+00 1.095301818847656250e+01 -8.023543357849121094e+00 -2.150271224975585938e+01
-2.283118247985839844e+00 4.104794502258300781e+00 7.126485824584960938e+00 4.104794502258300781e+00 8.841131210327148438e+00 -2.027866840362548828e+00 7.126485824584960938e+00 -2.027866840362548828e+00 1.288315010070800781e+01
8.933734893798828125e+00 4.482670307159423828e+00 -2.643962621688842773e+00 4.482670307159423828e+00 1.114779472351074219e+01 3.915010988712310791e-01 -2.643962621688842773e+00 3.915010988712310791e-01 1.437932014465332031e+01
9.719285964965820312e+00 -6.140411853790283203e+00 -4.800600528717041016e+00 -6.140411853790283203e+00 1.440574836730957031e+01 3.812743186950683594e+00 -4.800600528717041016e+00 3.812743186950683594e+00 -4.717821121215820312e+00
2.521214103698730469e+01 3.359746456146240234e+00 -4.900123596191406250e+00 3.359746456146240234e+00 1.050189495086669922e+01 2.644835710525512695e+00 -4.900123596191406250e+00 2.644835710525512695e+00 1.905404281616210938e+01
7.818218708038330078e+00 2.834429979324340820e+00 1.102876663208007812e+01 2.834429979324340820e+00 4.153485894203186035e-01 1.552995014190673828e+01 1.102876663208007812e+01 1.552995014190673828e+01 4.469886779785156250e+00
1.015593814849853516e+01 9.440716743469238281e+00 4.994589328765869141e+00 9.440716743469238281e+00 2.042945289611816406e+01 4.124836444854736328e+00 4.994589328765869141e+00 4.124836444854736328e+00 1.268457221984863281e+01
-5.934499263763427734e+00 -7.700288295745849609e-01 6.408407688140869141e+00 -7.700288295745849609e-01 -1.121171283721923828e+01 1.463531255722045898e+00 6.408407688140869141e+00 1.463531255722045898e+00 -6.801514625549316406e+00
1.370799160003662109e+01 1.764675498008728027e+00 6.979983329772949219e+00 1.764675498008728027e+00 1.055220890045166016e+01 -3.673283338546752930e+00 6.979983329772949219e+00 -3.673283338546752930e+00 8.960927009582519531e+00
-1.115837001800537109e+01 -5.553917884826660156e+00 1.173340320587158203e+00 -5.553917884826660156e+00 -1.213920116424560547e+01 1.872120261192321777e+00 1.173340320587158203e+00 1.872120261192321777e+00 1.825711250305175781e+01
1.650872707366943359e+00 -7.329371452331542969e+00 -4.977449893951416016e+00 -7.329371452331542969e+00 9.707594871520996094e+00 8.298376083374023438e+00 -4.977449893951416016e+00 8.298376083374023438e+00 9.355910301208496094e+00
-8.508359909057617188e+00 -1.270138978958129883e+00 4.984735965728759766e+00 -1.270138978958129883e+00 -8.449590764939785004e-03 -2.473203897476196289e+00 4.984735965728759766e+00 -2.473203897476196289e+00 -1.747128486633300781e+01
-7.310394287109375000e+00 -2.116810321807861328e+00 2.315150976181030273e+00 -2.116810321807861328e+00 -2.098608398437500000e+01 -3.832246541976928711e+00 2.315150976181030273e+00 -3.832246541976928711e+00 -1.158403301239013672e+01
-1.778858757019042969e+01 4.760168552398681641e+00 1.300886988639831543e+00 4.760168552398681641e+00 -3.810837745666503906e+00 -2.379001617431640625e+00 1.300886988639831543e+00 -2.379001617431640625e+00 -2.397816658020019531e+01
1.259111118316650391e+01 -1.541885018348693848e+00 -7.930645346641540527e-01 -1.541885018348693848e+00 -4.667241573333740234e+00 -3.152242898941040039e+00 -7.930645346641540527e-01 -3.152242898941040039e+00 5.175976276397705078e+00
-1.027206325531005859e+01 5.900073647499084473e-01 1.158741378784179688e+01 5.900073647499084473e-01 -1.008419418334960938e+01 4.057703018188476562e+00 1.158741378784179688e+01 4.057703018188476562e+00 -1.125635337829589844e+01
1.836682701110839844e+01 -5.849718093872070312e+00 -7.678975582122802734e+00 -5.849718093872070312e+00 1.556468129158020020e+00 -3.046630024909973145e-01 -7.678975582122802734e+00 -3.046630024909973145e-01 1.999420166015625000e+01
-2.705051040649414062e+01 4.269505441188812256e-01 -4.067515850067138672e+00 4.269505441188812256e-01 -1.282570457458496094e+01 4.078919887542724609e+00 -4.067515850067138672e+00 4.078919887542724609e+00 -8.385489463806152344e+00
-5.681466579437255859e+00 -4.693366050720214844e+00 -4.824559688568115234e+00 -4.693366050720214844e+00 -1.107350921630859375e+01 -2.469789266586303711e+00 -4.824559688568115234e+00 -2.469789266586303711e+00 -2.216935157775878906e+01
-1.959154319763183594e+01 -4.067072391510009766e+00 6.958249092102050781e+00 -4.067072391510009766e+00 -1.469440364837646484e+01 -3.213016510009765625e+00 6.958249092102050781e+00 -3.213016510009765625e+00 -2.098169898986816406e+01
-2.283805847167968750e+01 7.280409812927246094e+00 -5.484353065490722656e+00 7.280409812927246094e+00 -1.880897521972656250e+01 -2.638111114501953125e+00 -5.484353065490722656e+00 -2.638111114501953125e+00 -1.128322601318359375e+01
-1.418895149230957031e+01 3.615949869155883789e+00 -1.614918231964111328e+00 3.615949869155883789e+00 -1.416880702972412109e+01 -7.431401252746582031e+00 -1.614918231964111328e+00 -7.431401252746582031e+00 -1.510696125030517578e+01
1.224440288543701172e+01 -2.878849029541015625e+00 3.717581510543823242e+00 -2.878849029541015625e+00 2.191201019287109375e+01 7.845306992530822754e-01 3.717581510543823242e+00 7.845306992530822754e-01 2.599996185302734375e+01
-1.042967224121093750e+01 -4.652322292327880859e+00 5.073286294937133789e-01 -4.652322292327880859e+00 -6.383961200714111328e+00 4.811048030853271484e+00 5.073286294937133789e-01 4.811048030853271484e+00 -1.541719341278076172e+01
-1.371388244628906250e+01 -1.469513058662414551e+00 3.554106712341308594e+00 -1.469513058662414551e+00 -3.329732513427734375e+01 -7.159323215484619141e+00 3.554106712341308594e+00 -7.159323215484619141e+00 -4.605100250244140625e+01
3.512140512466430664e+00 1.607648849487304688e+01 5.041046142578125000e+00 1.607648849487304688e+01 2.372329521179199219e+01 -1.024644470214843750e+01 5.041046142578125000e+00 -1.024644470214843750e+01 1.853781318664550781e+01
-1.841694641113281250e+01 -2.184496164321899414e+00 -1.517614173889160156e+01 -2.184496164321899414e+00 -2.867604255676269531e+01 -3.453615665435791016e+00 -1.517614173889160156e+01 -3.453615665435791016e+00 -2.296672821044921875e+01
-2.198471069335937500e+01 -5.624015331268310547e+00 -4.359550952911376953e+00 -5.624015331268310547e+00 -1.659204292297363281e+01 -1.168482017517089844e+01 -4.359550952911376953e+00 -1.168482017517089844e+01 -7.236984252929687500e+00
