   6   6   0   0
  0.5000000E+03  0.3000000E-08  0.1000000E-08  0.1000000E-08  0.5000000E-15
  1.000000000000000E-004
  CAR 
 unknown system                          
      1.49899634    -26.51874853  301     -6.24674271      1.00000000
    -26.519  0.0000E+00  0.0000E+00
    -26.425  0.0000E+00  0.0000E+00
    -26.332  0.0000E+00  0.0000E+00
    -26.239  0.0000E+00  0.0000E+00
    -26.145  0.0000E+00  0.0000E+00
    -26.052  0.0000E+00  0.0000E+00
    -25.958  0.0000E+00  0.0000E+00
    -25.865  0.0000E+00  0.0000E+00
    -25.772  0.0000E+00  0.0000E+00
    -25.678  0.0000E+00  0.0000E+00
    -25.585  0.0000E+00  0.0000E+00
    -25.491  0.3540E-10  0.3306E-11
    -25.398  0.1652E-03  0.1543E-04
    -25.305  0.9931E+00  0.9277E-01
    -25.211  0.1682E+02  0.1663E+01
    -25.118  0.3603E+01  0.2000E+01
    -25.024  0.3380E-02  0.2000E+01
    -24.931  0.4578E-08  0.2000E+01
    -24.838  0.0000E+00  0.2000E+01
    -24.744  0.0000E+00  0.2000E+01
    -24.651  0.0000E+00  0.2000E+01
    -24.558  0.0000E+00  0.2000E+01
    -24.464  0.3566E-14  0.2000E+01
    -24.371  0.3622E-06  0.2000E+01
    -24.277  0.4274E-01  0.2004E+01
    -24.184  0.8656E+01  0.2812E+01
    -24.091  0.1254E+02  0.3984E+01
    -23.997  0.1735E+00  0.4000E+01
    -23.904  0.4836E-05  0.4000E+01
    -23.810  0.1617E-12  0.4000E+01
    -23.717  0.0000E+00  0.4000E+01
    -23.624  0.0000E+00  0.4000E+01
    -23.530  0.0000E+00  0.4000E+01
    -23.437  0.0000E+00  0.4000E+01
    -23.343  0.0000E+00  0.4000E+01
    -23.250  0.0000E+00  0.4000E+01
    -23.157  0.0000E+00  0.4000E+01
    -23.063  0.0000E+00  0.4000E+01
    -22.970  0.0000E+00  0.4000E+01
    -22.876  0.0000E+00  0.4000E+01
    -22.783  0.0000E+00  0.4000E+01
    -22.690  0.0000E+00  0.4000E+01
    -22.596  0.0000E+00  0.4000E+01
    -22.503  0.0000E+00  0.4000E+01
    -22.409  0.0000E+00  0.4000E+01
    -22.316  0.0000E+00  0.4000E+01
    -22.223  0.0000E+00  0.4000E+01
    -22.129  0.0000E+00  0.4000E+01
    -22.036  0.0000E+00  0.4000E+01
    -21.943  0.0000E+00  0.4000E+01
    -21.849  0.0000E+00  0.4000E+01
    -21.756  0.0000E+00  0.4000E+01
    -21.662  0.0000E+00  0.4000E+01
    -21.569  0.0000E+00  0.4000E+01
    -21.476  0.0000E+00  0.4000E+01
    -21.382  0.0000E+00  0.4000E+01
    -21.289  0.0000E+00  0.4000E+01
    -21.195  0.0000E+00  0.4000E+01
    -21.102  0.0000E+00  0.4000E+01
    -21.009  0.0000E+00  0.4000E+01
    -20.915  0.0000E+00  0.4000E+01
    -20.822  0.0000E+00  0.4000E+01
    -20.728  0.0000E+00  0.4000E+01
    -20.635  0.0000E+00  0.4000E+01
    -20.542  0.0000E+00  0.4000E+01
    -20.448  0.0000E+00  0.4000E+01
    -20.355  0.0000E+00  0.4000E+01
    -20.261  0.0000E+00  0.4000E+01
    -20.168  0.0000E+00  0.4000E+01
    -20.075  0.0000E+00  0.4000E+01
    -19.981  0.0000E+00  0.4000E+01
    -19.888  0.0000E+00  0.4000E+01
    -19.794  0.0000E+00  0.4000E+01
    -19.701  0.0000E+00  0.4000E+01
    -19.608  0.0000E+00  0.4000E+01
    -19.514  0.0000E+00  0.4000E+01
    -19.421  0.0000E+00  0.4000E+01
    -19.328  0.0000E+00  0.4000E+01
    -19.234  0.0000E+00  0.4000E+01
    -19.141  0.0000E+00  0.4000E+01
    -19.047  0.0000E+00  0.4000E+01
    -18.954  0.0000E+00  0.4000E+01
    -18.861  0.0000E+00  0.4000E+01
    -18.767  0.0000E+00  0.4000E+01
    -18.674  0.0000E+00  0.4000E+01
    -18.580  0.0000E+00  0.4000E+01
    -18.487  0.0000E+00  0.4000E+01
    -18.394  0.0000E+00  0.4000E+01
    -18.300  0.0000E+00  0.4000E+01
    -18.207  0.0000E+00  0.4000E+01
    -18.113  0.0000E+00  0.4000E+01
    -18.020  0.0000E+00  0.4000E+01
    -17.927  0.0000E+00  0.4000E+01
    -17.833  0.0000E+00  0.4000E+01
    -17.740  0.0000E+00  0.4000E+01
    -17.646  0.0000E+00  0.4000E+01
    -17.553  0.0000E+00  0.4000E+01
    -17.460  0.0000E+00  0.4000E+01
    -17.366  0.0000E+00  0.4000E+01
    -17.273  0.0000E+00  0.4000E+01
    -17.180  0.0000E+00  0.4000E+01
    -17.086  0.0000E+00  0.4000E+01
    -16.993  0.0000E+00  0.4000E+01
    -16.899  0.0000E+00  0.4000E+01
    -16.806  0.0000E+00  0.4000E+01
    -16.713  0.0000E+00  0.4000E+01
    -16.619  0.0000E+00  0.4000E+01
    -16.526  0.0000E+00  0.4000E+01
    -16.432  0.0000E+00  0.4000E+01
    -16.339  0.0000E+00  0.4000E+01
    -16.246  0.0000E+00  0.4000E+01
    -16.152  0.0000E+00  0.4000E+01
    -16.059  0.0000E+00  0.4000E+01
    -15.965  0.0000E+00  0.4000E+01
    -15.872  0.0000E+00  0.4000E+01
    -15.779  0.0000E+00  0.4000E+01
    -15.685  0.0000E+00  0.4000E+01
    -15.592  0.0000E+00  0.4000E+01
    -15.498  0.0000E+00  0.4000E+01
    -15.405  0.0000E+00  0.4000E+01
    -15.312  0.0000E+00  0.4000E+01
    -15.218  0.0000E+00  0.4000E+01
    -15.125  0.0000E+00  0.4000E+01
    -15.031  0.0000E+00  0.4000E+01
    -14.938  0.0000E+00  0.4000E+01
    -14.845  0.0000E+00  0.4000E+01
    -14.751  0.0000E+00  0.4000E+01
    -14.658  0.0000E+00  0.4000E+01
    -14.565  0.0000E+00  0.4000E+01
    -14.471  0.0000E+00  0.4000E+01
    -14.378  0.0000E+00  0.4000E+01
    -14.284  0.0000E+00  0.4000E+01
    -14.191  0.0000E+00  0.4000E+01
    -14.098  0.0000E+00  0.4000E+01
    -14.004  0.0000E+00  0.4000E+01
    -13.911  0.0000E+00  0.4000E+01
    -13.817  0.0000E+00  0.4000E+01
    -13.724  0.0000E+00  0.4000E+01
    -13.631  0.0000E+00  0.4000E+01
    -13.537  0.0000E+00  0.4000E+01
    -13.444  0.0000E+00  0.4000E+01
    -13.350  0.0000E+00  0.4000E+01
    -13.257  0.3441E-09  0.4000E+01
    -13.164  0.6931E-03  0.4000E+01
    -13.070  0.1883E+01  0.4176E+01
    -12.977  0.1741E+02  0.5802E+01
    -12.883  0.2116E+01  0.6000E+01
    -12.790  0.9106E-03  0.6000E+01
    -12.697  0.5342E-09  0.6000E+01
    -12.603  0.0000E+00  0.6000E+01
    -12.510  0.0000E+00  0.6000E+01
    -12.416  0.0000E+00  0.6000E+01
    -12.323  0.0000E+00  0.6000E+01
    -12.230  0.3197E-11  0.6000E+01
    -12.136  0.3494E-04  0.6000E+01
    -12.043  0.4735E+00  0.6044E+01
    -11.950  0.1528E+02  0.7471E+01
    -11.856  0.5653E+01  0.7999E+01
    -11.763  0.1147E-01  0.8000E+01
    -11.669  0.3605E-07  0.8000E+01
    -11.576  0.0000E+00  0.8000E+01
    -11.483  0.0000E+00  0.8000E+01
    -11.389  0.0000E+00  0.8000E+01
    -11.296  0.0000E+00  0.8000E+01
    -11.202  0.0000E+00  0.8000E+01
    -11.109  0.0000E+00  0.8000E+01
    -11.016  0.0000E+00  0.8000E+01
    -10.922  0.0000E+00  0.8000E+01
    -10.829  0.0000E+00  0.8000E+01
    -10.735  0.0000E+00  0.8000E+01
    -10.642  0.0000E+00  0.8000E+01
    -10.549  0.0000E+00  0.8000E+01
    -10.455  0.0000E+00  0.8000E+01
    -10.362  0.0000E+00  0.8000E+01
    -10.268  0.0000E+00  0.8000E+01
    -10.175  0.0000E+00  0.8000E+01
    -10.082  0.7286E-09  0.8000E+01
     -9.988  0.1103E-02  0.8000E+01
     -9.895  0.2294E+01  0.8214E+01
     -9.801  0.1739E+02  0.9838E+01
     -9.708  0.1730E+01  0.1000E+02
     -9.615  0.5693E-03  0.1000E+02
     -9.521  0.2510E-09  0.1000E+02
     -9.428  0.0000E+00  0.1000E+02
     -9.335  0.0000E+00  0.1000E+02
     -9.241  0.0000E+00  0.1000E+02
     -9.148  0.0000E+00  0.1000E+02
     -9.054  0.0000E+00  0.1000E+02
     -8.961  0.6541E-07  0.1000E+02
     -8.868  0.1620E-01  0.1000E+02
     -8.774  0.6362E+01  0.1060E+02
     -8.681  0.1466E+02  0.1197E+02
     -8.587  0.3724E+00  0.1200E+02
     -8.494  0.2152E-04  0.1200E+02
     -8.401  0.1526E-11  0.1200E+02
     -8.307  0.0000E+00  0.1200E+02
     -8.214  0.0000E+00  0.1200E+02
     -8.120  0.0000E+00  0.1200E+02
     -8.027  0.0000E+00  0.1200E+02
     -7.934  0.0000E+00  0.1200E+02
     -7.840  0.7753E-07  0.1200E+02
     -7.747  0.1786E-01  0.1200E+02
     -7.653  0.6573E+01  0.1262E+02
     -7.560  0.1448E+02  0.1397E+02
     -7.467  0.3470E+00  0.1400E+02
     -7.373  0.1868E-04  0.1400E+02
     -7.280  0.1232E-11  0.1400E+02
     -7.187  0.0000E+00  0.1400E+02
     -7.093  0.0000E+00  0.1400E+02
     -7.000  0.0000E+00  0.1400E+02
     -6.906  0.0000E+00  0.1400E+02
     -6.813  0.4977E-11  0.1400E+02
     -6.720  0.4664E-04  0.1400E+02
     -6.626  0.5452E+00  0.1405E+02
     -6.533  0.1562E+02  0.1551E+02
     -6.439  0.5243E+01  0.1600E+02
     -6.346  0.9267E-02  0.1600E+02
     -6.253  0.2502E-07  0.1600E+02
     -6.159  0.0000E+00  0.1600E+02
     -6.066  0.0000E+00  0.1600E+02
     -5.972  0.0000E+00  0.1600E+02
     -5.879  0.0000E+00  0.1600E+02
     -5.786  0.0000E+00  0.1600E+02
     -5.692  0.0000E+00  0.1600E+02
     -5.599  0.0000E+00  0.1600E+02
     -5.505  0.0000E+00  0.1600E+02
     -5.412  0.0000E+00  0.1600E+02
     -5.319  0.0000E+00  0.1600E+02
     -5.225  0.0000E+00  0.1600E+02
     -5.132  0.0000E+00  0.1600E+02
     -5.038  0.0000E+00  0.1600E+02
     -4.945  0.0000E+00  0.1600E+02
     -4.852  0.0000E+00  0.1600E+02
     -4.758  0.0000E+00  0.1600E+02
     -4.665  0.0000E+00  0.1600E+02
     -4.572  0.0000E+00  0.1600E+02
     -4.478  0.0000E+00  0.1600E+02
     -4.385  0.0000E+00  0.1600E+02
     -4.291  0.0000E+00  0.1600E+02
     -4.198  0.0000E+00  0.1600E+02
     -4.105  0.0000E+00  0.1600E+02
     -4.011  0.0000E+00  0.1600E+02
     -3.918  0.0000E+00  0.1600E+02
     -3.824  0.0000E+00  0.1600E+02
     -3.731  0.0000E+00  0.1600E+02
     -3.638  0.0000E+00  0.1600E+02
     -3.544  0.0000E+00  0.1600E+02
     -3.451  0.0000E+00  0.1600E+02
     -3.357  0.0000E+00  0.1600E+02
     -3.264  0.0000E+00  0.1600E+02
     -3.171  0.0000E+00  0.1600E+02
     -3.077  0.0000E+00  0.1600E+02
     -2.984  0.0000E+00  0.1600E+02
     -2.890  0.0000E+00  0.1600E+02
     -2.797  0.0000E+00  0.1600E+02
     -2.704  0.0000E+00  0.1600E+02
     -2.610  0.0000E+00  0.1600E+02
     -2.517  0.0000E+00  0.1600E+02
     -2.423  0.0000E+00  0.1600E+02
     -2.330  0.0000E+00  0.1600E+02
     -2.237  0.0000E+00  0.1600E+02
     -2.143  0.0000E+00  0.1600E+02
     -2.050  0.0000E+00  0.1600E+02
     -1.957  0.0000E+00  0.1600E+02
     -1.863  0.0000E+00  0.1600E+02
     -1.770  0.1189E-14  0.1600E+02
     -1.676  0.1554E-06  0.1600E+02
     -1.583  0.2656E-01  0.1600E+02
     -1.490  0.7478E+01  0.1670E+02
     -1.396  0.1365E+02  0.1798E+02
     -1.303  0.2568E+00  0.1800E+02
     -1.209  0.1032E-04  0.1800E+02
     -1.116  0.5017E-12  0.1800E+02
     -1.023  0.0000E+00  0.1800E+02
     -0.929  0.0000E+00  0.1800E+02
     -0.836  0.0000E+00  0.1800E+02
     -0.742  0.0000E+00  0.1800E+02
     -0.649  0.4339E-13  0.1800E+02
     -0.556  0.1999E-05  0.1800E+02
     -0.462  0.1087E+00  0.1801E+02
     -0.369  0.1120E+02  0.1906E+02
     -0.275  0.1003E+02  0.1999E+02
     -0.182  0.7149E-01  0.2000E+02
     -0.089  0.3118E-03  0.2000E+02
      0.005  0.1324E+01  0.2012E+02
      0.098  0.1720E+02  0.2173E+02
      0.192  0.6529E+01  0.2234E+02
      0.285  0.1680E+02  0.2391E+02
      0.378  0.9810E+00  0.2400E+02
      0.472  0.1609E-03  0.2400E+02
      0.565  0.3397E-10  0.2400E+02
      0.658  0.0000E+00  0.2400E+02
      0.752  0.0000E+00  0.2400E+02
      0.845  0.0000E+00  0.2400E+02
      0.939  0.0000E+00  0.2400E+02
      1.032  0.0000E+00  0.2400E+02
      1.125  0.0000E+00  0.2400E+02
      1.219  0.0000E+00  0.2400E+02
      1.312  0.0000E+00  0.2400E+02
      1.406  0.0000E+00  0.2400E+02
      1.499  0.0000E+00  0.2400E+02
