LAMMPS data file via write_data, version 29 Sep 2021, timestep = 100000

432 atoms
2 atom types

0.9799471786095673 19.078555279454193 xlo xhi
0.9799471786095673 19.078555279454193 ylo yhi
0.3266490595364968 6.359518426484552 zlo zhi

Masses

1 15.999
2 1.00784

Atoms # atomic

4 1 4.128461401672548 4.017712983212284 6.255131513431097 0 0 -1
13 1 2.4848933680472474 2.5733292079918026 2.0585250498254535 0 0 0
34 1 4.0190785205422745 4.168550728724013 3.6185294676004824 0 0 0
43 1 2.46163413628154 2.5128462948149277 4.777071620388366 0 0 0
306 2 4.747792165553584 4.1830404716171135 1.06385375147334 0 1 0
177 2 2.6157621142398186 1.9649705833241038 3.9777465582488025 0 0 1
266 2 3.6129111750483216 3.288228182694883 0.5863551238342637 1 0 2
38 2 2.2327745992622523 3.410910095245189 1.629000466282065 0 0 1
264 2 3.261882013152976 3.638424150944609 3.139696830085749 1 0 0
95 2 1.9378739037318096 4.739760774987476 4.998249431089025 1 0 1
25 1 3.693875371985713 1.1842654517491205 6.303549419632628 0 0 -1
209 2 1.4924969947633038 2.4086931207814457 2.2676915151607933 1 1 2
116 2 2.224036750133208 1.8275293636557939 5.365095174986044 1 0 0
354 2 3.5106780749871302 4.511213299201502 4.341429861899666 0 1 0
40 1 2.3855587037418617 5.044110179942496 1.5538735988745005 0 0 0
22 1 2.3302459218116844 5.442396090669719 4.575790529063143 0 0 0
312 2 18.3647014108705 5.142753985990755 5.311561790283326 -1 1 0
47 2 3.048270945728204 16.905836178693704 4.607812991704268 0 -1 1
35 2 4.549642847943007 1.0722893705318626 6.08908728311375 0 1 -1
108 2 5.979991230011713 2.3917583469931456 0.9379294568256474 1 0 -1
377 2 4.540975318698376 2.8635284661265112 4.502072510041993 1 1 -1
10 1 18.864013424473384 4.00995286075543 3.4066753437368 -1 0 0
28 1 18.716971235816608 3.774323734085376 6.205884329228512 -1 0 -1
341 2 1.4441408327416676 3.1965958892757755 6.175321916680181 1 1 -1
239 2 18.596845126606794 4.9545035282872885 3.6053475211011308 -1 1 1
396 2 4.551746082560831 1.6424430740814688 2.871791340846973 0 1 0
1 1 0.9926940835583913 18.943302540056678 6.0903238787334 0 -1 -1
140 2 5.9918998715396885 3.0401791030347165 2.3618696675493545 0 0 1
19 1 5.346355639309893 2.4906224892399758 4.55234056083518 0 0 0
37 1 5.473849118961649 2.417010914699688 1.7394269478037294 0 0 0
213 2 7.545435299068874 4.870191527303726 3.2622914437240587 1 0 1
381 2 7.104794666837505 4.99458639955569 5.59452187308181 0 1 1
58 1 6.873534651816199 4.287738524596257 3.4222006237335476 0 0 0
76 1 6.9184745086501325 4.181566646415072 6.177680438907114 0 0 -1
61 1 8.270638126975262 2.878722488668283 2.0297247107863594 0 0 0
91 1 8.480864195319462 2.5919742848602016 4.914427155280164 0 0 0
5 2 7.945017008364009 3.8426536560789564 2.0033776804785512 0 0 0
56 2 7.969176316028826 2.80608084478218 4.154396894373208 0 0 0
105 2 8.860373800145396 2.824196692102821 1.3215839067225332 0 0 1
267 2 6.285353822518179 4.764640214252184 3.9889177653447265 0 0 0
78 2 10.121002599796814 18.381687496315717 3.6141610355014557 0 -1 -1
53 2 6.536688876004868 1.48706603463221 4.037952204963745 0 0 -1
380 2 7.627568662417338 3.5958628478773433 6.247753755128395 0 1 -1
52 1 10.466467232525606 3.7221609669211926 6.218081392812731 0 0 -1
168 2 7.820946315347097 1.8913735526777424 5.15685357436471 -1 0 0
231 2 6.025255302089288 3.123088266968902 4.782344498543001 0 0 2
156 2 9.704068293179196 4.0790909721637805 2.3740177707734933 -1 0 0
60 2 9.828381262631662 3.1862149651914864 5.615857333351219 0 0 0
276 2 9.033895418530637 5.020212178393923 1.2089455898631511 0 0 1
251 2 11.031241362718983 4.270741975249845 5.656354108647635 0 0 -1
393 2 7.135729865956889 18.476949904933004 0.8730764445302196 1 0 0
82 1 10.576083554764407 4.074522669095223 2.794368586835113 0 0 0
371 2 10.83342367751768 4.712734896524023 3.505242553647121 0 1 0
324 2 10.51092886040824 1.9852105745711282 2.207031363367218 0 1 0
317 2 11.870030909619787 3.025861611766037 3.982760500683535 -1 1 -2
326 2 11.853892235461878 1.4252931682525527 1.5241305250553416 0 0 0
67 1 11.533937264026294 2.3200759365354457 4.643420115415804 0 0 0
85 1 11.424630810080291 2.2544622629179774 1.702473622424582 0 0 0
106 1 12.962667278890173 3.9358461649706418 3.5388788038847467 0 0 0
124 1 13.099071679358236 4.093434153292241 6.309881793238899 0 0 -1
236 2 13.687270784820745 4.5858526006296625 3.9071607755186837 0 0 0
330 2 12.716565460494612 4.926875382327906 0.7953831953913427 -1 1 -2
425 2 11.982013796397508 2.185137510261292 5.5055322543066545 0 1 -1
300 2 13.341850539791883 3.712943434432531 2.6075068623887363 -1 1 1
282 2 10.996347941543508 3.0129443014003603 0.9356415249595735 0 0 1
127 1 13.209931656384704 1.1347046531216647 3.3671333973369024 0 0 0
149 2 10.945712576682785 6.198037906343925 1.3990557157885775 0 1 2
55 1 9.830178300607512 1.1132206731531504 3.2314221347326106 0 0 0
123 2 13.830028663015336 2.004958855515575 2.590359428979166 0 0 1
128 2 15.099437190702622 1.9616046329389691 1.4751669081107044 0 0 0
109 1 14.594284949197622 2.5824247109766305 2.1424109904676385 0 0 0
139 1 14.617484934467958 2.733413634242119 4.872108747049019 0 0 0
308 2 16.12306111725029 4.293048371887989 2.3788543076022615 -1 1 2
120 2 14.203958820895739 2.4244698571209273 5.649389546216096 0 0 1
167 2 13.331313605753603 4.474897227640685 5.453707365547073 -1 1 0
432 2 14.979685597880776 4.890653639825416 5.426050842429554 0 1 0
428 2 9.387566047680368 18.456767310379938 0.5458033000111164 0 -1 1
227 2 13.038645519340157 2.096918500877563 0.7782170242812062 0 1 2
31 1 19.063845897081382 19.002187361950707 3.7850865406276433 -1 -1 0
24 2 1.5550205435769477 4.131002532784929 2.9378294023226066 0 0 0
431 2 18.60464180128402 18.70115770792932 3.0218897348448372 0 0 0
29 2 13.874222692899483 3.2012152564532506 4.446709956184932 0 0 -1
59 2 15.004538758694427 18.36482131880519 4.463713277154605 0 -1 -1
185 2 17.859030602666273 3.2262438317980555 2.2040644719304985 -1 0 -2
141 2 16.410722934761985 1.752248133260365 5.699618628697994 0 0 0
426 2 18.411891836898796 1.7622589690597938 4.12022064661487 0 1 0
100 1 16.186310139020136 4.002131044472288 0.5932023628826174 0 0 0
115 1 17.520737111656093 2.3104603049822376 4.906894328059826 0 0 0
130 1 16.37806544884462 3.9783100721304563 3.2258246782895696 0 0 0
133 1 17.877012131235922 2.304529452530047 2.1210690611796794 0 0 0
26 2 16.50828356877784 3.792871820639614 5.719884388862145 -1 0 -1
270 2 16.9997069533284 1.8426493347594541 2.29934941972983 0 0 -1
411 2 17.121580814625933 2.569997501229654 3.9931976778591354 0 1 -1
146 2 16.489792645571285 3.2425763499659253 1.244815837441812 -1 0 0
147 2 1.8026526119919928 18.778350351705676 0.6398913594756968 0 -1 -1
242 2 13.951364266687111 4.635659335573334 1.5041276438015758 0 0 0
150 2 13.952453229094106 6.06747236629514 5.3739173302315155 0 0 -1
275 2 16.499557459238552 6.162104297033923 5.828077692256706 0 0 0
320 2 18.214130523650894 6.335021913522193 0.9662231411410892 -1 0 2
258 2 15.459187887503775 1.7241785779795302 3.3517214092297514 0 1 1
332 2 15.567921946017904 3.568968972951141 3.4089832508859814 0 1 1
103 1 16.21660145912137 0.9893168573189349 3.456199975148183 0 0 0
121 1 15.915936270617475 1.3997214723986526 0.45874624974269784 0 0 0
119 2 18.26070018585975 1.3497056492411532 0.40813438921297873 0 0 1
132 2 3.090694609020734 4.680130833185768 0.8689253146298381 1 0 0
111 2 1.5935184292266644 5.2036925835563785 0.9545586920458822 1 0 1
135 2 2.5417460645333643 6.932422722787462 0.6176922089093428 1 0 0
15 2 3.7015171321730915 7.733886407460594 1.0260736349441535 0 0 1
69 2 3.801166105778635 11.121578795771955 1.0326209861409847 1 0 0
117 2 2.888569052902848 5.784251347526794 5.280152475060582 1 -1 0
151 1 3.8102146027627803 6.731304621314484 3.356799392328576 0 0 0
169 1 3.5228355728617973 6.883552389225046 0.537138812371955 0 0 0
157 1 2.395301963565596 8.7779508423935 1.7796731679794775 0 0 0
187 1 2.7329563550192866 8.56205754069246 4.644901327464989 0 0 0
30 2 1.1164728177580943 6.833890928230799 4.825142922075063 0 0 -2
137 2 1.8386663622553818 8.820116995916951 5.203420425966311 1 0 2
417 2 2.602528483654168 9.710442762722664 1.5321068181236603 1 0 0
195 2 3.8458015224804627 5.764573631295166 3.649263949959445 0 0 0
335 2 3.123034606679597 7.872123356725817 5.075021608315772 0 0 -1
248 2 18.753163228294756 6.644006891975665 3.727963433084467 0 0 -1
353 2 3.475625259055398 6.416740478161399 2.483026136613687 1 0 0
399 2 4.160509556389394 9.842695698243295 2.7190525592884245 1 0 1
68 2 1.7964812252205506 8.462498746375786 1.1970004919423798 0 0 1
221 2 4.5476652698104925 9.722100203853058 0.4040407798931517 0 1 -1
86 2 4.8941436182268365 6.13669186916057 1.423293611497314 0 0 0
16 1 5.6645578328181845 5.574309402989837 1.9071539390757923 0 0 0
163 1 5.464051178930221 8.550838790359194 5.1873015603739585 0 0 0
181 1 4.892661273463092 8.528833254653474 1.9884290922560564 0 0 0
18 2 1.5161571272134693 9.506332323200295 3.1369192174163536 0 0 -1
145 1 19.002596637352223 7.177084881222748 5.793664139595332 -1 0 -1
54 2 18.49509123396452 9.243846144680028 0.582884902601722 -1 0 0
93 2 7.0510087795905365 7.110402096965225 1.369832974901381 0 0 2
383 2 5.740552092728545 6.200176640749152 5.801515250889631 0 0 0
159 2 9.28539783575464 4.397406784163355 4.4963176233394435 0 0 -1
46 1 5.333402736650586 5.636196335245556 5.05721137301318 0 0 0
279 2 4.491089971708957 5.707347106942164 5.402087635630771 1 0 -1
20 2 6.3436741064268 6.379148727107842 3.336933552162064 0 0 -1
237 2 7.645210272716435 5.228622505612079 0.7947160196972836 0 0 0
70 1 8.903473963448361 5.320084445043173 4.334077166250564 0 0 0
201 2 8.999066263296545 6.021467164159404 4.90870996200643 0 0 0
88 1 8.303244060956168 5.432422178111053 1.5313228283342426 0 0 0
414 2 5.5442513628861 8.11581114376894 1.38696034959217 1 0 -1
176 2 5.077373046666548 8.37096778764159 4.3965776132460626 0 0 0
203 2 8.22400243110584 9.216946249640142 5.529850997873218 0 0 1
188 2 6.827777474552837 7.4291008094761235 4.2860899000376875 0 0 1
125 2 5.067539046219171 5.034506492583257 2.488044521744101 0 0 -2
98 2 7.14293609640664 7.609852489879079 5.911545015920395 1 0 0
193 1 6.758165338401194 7.054756569856815 0.4556662009031329 0 0 0
223 1 7.119505751464776 6.900867915215757 3.532511195494301 0 0 0
205 1 8.43886208453802 8.842294213306939 1.9271328549232658 0 0 0
235 1 8.405044465018111 8.648153030862929 4.805978173590386 0 0 0
285 2 4.853625291001854 7.914269453250173 5.623808015320055 0 0 0
405 2 9.370679415276852 8.726175329743029 4.71439801280993 0 0 -2
386 2 4.504509423345091 7.936266169571739 2.757257469613699 0 1 -1
45 2 10.718815911673182 9.140277857668634 5.485652374175569 0 -1 -1
202 1 6.768051761477271 9.792266852423037 3.437943102824351 0 0 0
217 1 9.69810822673943 6.728501647439201 6.275839314912286 0 0 -1
356 2 9.80785498535118 9.507902194297312 2.576943550310037 0 0 1
199 1 9.897995922063608 7.079489193604079 2.7072667060154583 0 0 0
327 2 7.518152444941943 10.825381910714801 0.9646517561701728 0 0 -1
66 2 7.570052356027917 9.548321722359749 3.7960079105823943 0 0 2
278 2 9.136093314945468 9.18481911202843 1.3279634723742202 0 0 -1
164 2 8.09046560941006 12.605479319318542 6.066268600038187 0 0 -1
64 1 11.828678529763684 5.696277467020175 1.4901209438923246 0 0 0
114 2 11.470300551935319 4.8934090426729435 1.76669622161212 1 0 0
136 1 14.588399919341171 5.484690667558243 1.6806153180275356 0 0 0
401 2 14.972936066142765 5.955906076427889 0.9837182163300703 0 1 0
216 2 9.09043971084306 7.043677843141894 0.9444111702511581 0 0 1
372 2 9.572590691184052 6.215872600615238 3.013471729000053 0 0 0
161 2 11.551637704096125 6.476830923140875 4.9053448089681435 0 0 0
179 2 8.740738199420388 7.940078893793592 2.288478955226263 0 0 -1
83 2 10.710342574562823 10.41936122851533 0.5340668968091751 0 0 2
284 2 12.429778508302094 5.912418723501237 3.6883163969782125 0 0 0
94 1 11.624580133915698 5.652794305621218 4.406812825760259 0 0 0
255 2 13.673952594100363 7.618123505661402 0.674701427087474 0 0 0
207 2 13.833022246633396 6.358763236049908 2.347963150046618 0 0 -1
241 1 13.129194666352891 7.0104054603039065 6.169476886437858 0 0 -1
271 1 13.2187289462449 6.740311579561409 3.149521836445447 0 0 0
211 1 11.29616969412364 8.122297258563139 4.803472591755229 0 0 0
229 1 11.929142896388353 8.252673535497108 1.7306381955048313 0 0 0
198 2 9.780785896121145 7.43799011226241 5.683404176889175 0 0 -1
318 2 10.600287547842974 6.987944959276556 3.47031131093751 -1 0 0
296 2 12.467609910908028 6.963275357018932 2.5541931995273113 0 0 1
351 2 11.953910236239775 8.213816746648146 4.2420984519682445 -1 0 -1
392 2 12.268536474789988 6.963354390892305 0.4981820494531597 0 0 0
283 1 14.669209070495855 8.495230980655784 4.456805989031659 0 0 0
253 1 14.84287845193482 8.726461883162326 1.8553283296687346 0 0 0
89 2 11.185529868961064 8.230210174920352 1.081777597331412 0 0 0
118 1 14.543832861687296 5.422876757711992 4.767362337288642 0 0 0
81 2 13.782829452185876 10.57793254357532 0.6924395140420274 -1 0 1
155 2 12.309238158074884 8.877820972322116 1.1465131281903924 -1 0 0
268 1 13.235900589202394 9.89988243150112 0.3447687979303407 0 0 0
144 2 13.866370636528782 8.605943502468621 2.0095567359686086 0 0 1
112 1 17.6348214674328 5.786265556498435 1.576695985621634 0 0 0
142 1 17.747042290241332 5.633299707417865 4.8084497181387835 0 0 0
263 2 14.22352190788753 9.080970576337737 3.918117286750635 0 0 -1
143 2 14.363436415305395 7.559566159677357 4.245646840672007 0 0 1
175 1 1.3275428949365624 7.215342384490559 3.1504618033336667 0 0 0
194 2 15.837540401757648 7.714360189818298 5.566616249549188 -1 0 0
249 2 17.072287355996348 5.044826254172374 4.296226135376296 0 0 0
32 2 16.8481286274831 8.327374327187702 1.1880177734926556 -1 0 2
41 2 2.130714791044649 7.488188989964782 3.603616487256608 0 0 -1
374 2 16.87708486209117 6.6062655634274146 2.5537417672871903 0 1 0
174 2 16.8699475300442 7.577844963754888 4.135257983205959 -1 0 -1
6 2 17.073279565536925 5.221810789942116 0.993310453391374 -1 0 -1
33 2 15.49708424014296 6.087248354636528 3.281609901176153 -1 -1 0
342 2 18.04919710363059 8.889846138209096 4.171258156743682 0 1 -3
2 2 15.069326256774804 9.09684546693834 1.0323180909954184 -1 0 0
247 1 16.125906433080928 6.801683032912176 3.2105381250172607 0 0 0
265 1 15.995900678285079 7.048546968733182 6.263110108851231 0 0 -1
259 1 17.442104731068188 8.363250504500336 4.62646995166927 0 0 0
277 1 17.626678692128223 8.542141978114905 1.6521062533499014 0 0 0
305 2 16.764061830567712 10.36304412925893 2.7710323890583366 -1 0 0
197 2 17.749594774620668 8.414111190013173 2.5468625576727137 0 0 0
246 2 18.314885245763495 7.7959934497442 5.509870590813115 0 0 -2
154 1 18.819129465248732 10.139270347844327 3.343228820711721 -1 0 0
274 1 16.116911951247403 10.05039046125461 3.19937325442924 0 0 0
172 1 19.010684090797984 9.633485843404104 5.881554120129049 -1 0 -1
244 1 16.02690559820595 9.912938530902558 6.184825809949716 0 0 -1
362 2 15.289028883389108 10.74617538790315 3.078252694830546 0 0 0
74 2 16.751234888236425 10.39705396116617 0.5913174269251398 0 -1 0
148 1 3.7863752633876904 10.272003356687081 6.320135370126686 0 0 -1
183 2 1.4796553106702297 10.778275323296667 3.547967336396835 0 0 0
189 2 3.7151010717502095 9.475074154198575 4.097957645768556 0 0 2
178 1 3.8322026541670695 10.278147712469035 3.516794569782888 0 0 0
166 1 2.286492314687295 11.554411961127393 4.964210687884124 0 0 0
184 1 2.073093173978843 11.415995316142183 1.6312430675969205 0 0 0
295 1 3.8095592788116504 12.87176673335901 3.1511902136712995 0 0 0
313 1 3.9322472345384107 13.113986346854684 0.5074470099530082 0 0 0
65 2 3.2237966989961957 13.136237387167254 5.933091809065665 0 0 -2
336 2 5.072216834869873 11.875661032427418 5.627320323560573 0 0 0
152 2 1.3610073488303738 11.272065572768891 1.0864419523358686 0 0 1
17 2 2.6301312141589537 10.8424672303888 5.479335309526579 0 0 -2
365 2 5.428883240514796 15.016747425977194 4.116393182831624 0 0 -1
87 2 1.7889098947455526 12.271787548425307 5.485900521906451 0 -1 0
27 2 3.5501380044567408 12.907956343004177 1.3903939044835485 0 0 1
291 2 1.706108056162602 12.246108898596999 2.175295000987899 0 0 0
245 2 5.983665498005521 15.152096605809563 2.5452576704961283 1 0 -1
63 2 4.710157352782255 10.838940826492582 4.50267002585551 0 -1 -2
398 2 1.168270035468834 13.47895703092617 0.8387409665923481 1 0 2
384 2 2.7109034061975885 14.539040716014615 4.209547601645156 1 0 0
42 2 4.472212195468949 12.360469364630065 2.659050427772797 0 0 0
162 2 18.52249738219419 10.229801747200279 5.4372112323607045 -1 0 0
323 2 1.5297487764871196 13.602004555078715 3.778262101173538 0 0 0
272 2 3.3964915818894283 12.45052518320915 3.8424970694667477 0 -1 0
325 1 5.551333886527118 14.299696754938084 1.9324405244965934 0 0 0
234 2 6.349161360083631 9.074163550361273 2.9666035155069266 0 0 -1
190 1 5.52884202107067 11.6944364288474 4.803684400448134 0 0 0
75 2 6.433924122523501 10.518270713587055 5.579942594873643 0 -1 -2
390 2 5.974325788975573 12.430841589873468 1.564171360688515 1 0 0
160 1 5.45561425622323 11.618553991782848 1.6708764228767523 0 0 0
220 1 7.171205519344874 10.255144385112704 6.173498414451137 0 0 -1
303 2 11.171015708529458 9.00058359150831 3.053935973273781 -1 0 -1
378 2 6.698894788945767 13.515832636210273 5.298702553961551 0 0 0
309 2 7.982499157345275 12.035220564295763 2.493822621664543 0 0 1
413 2 7.72840488285359 10.625106512346745 2.4556273488494496 0 0 -2
368 2 7.857087563779539 14.100733204298923 0.534492757072724 0 0 0
214 1 8.714526660320516 11.349228399745332 4.881488903060944 0 0 0
232 1 8.44650210972786 11.36010927996516 1.978999571853171 0 0 0
337 1 7.366547351117569 13.220024314077655 6.067814027541534 0 0 -1
367 1 7.019406627439779 12.758020827739477 3.407982912308514 0 0 0
302 2 5.951047196689916 11.289677075122878 2.5361722699317744 0 0 1
206 2 9.10482591143071 10.94100021845058 5.604961258758003 0 0 0
287 2 6.733711704527571 12.073590717656943 3.924128973427515 0 0 1
361 1 9.73749639140153 13.053090465066385 0.38968671625470286 0 0 0
101 2 6.288219155129971 13.390330333681677 3.196780614981738 0 -1 1
333 2 7.6927000654684585 14.958010498031141 2.3571644344138023 0 0 1
402 2 9.593796780201677 12.631534105079082 1.270733915593715 0 1 -2
153 2 11.075415865813673 12.796846122212612 3.332634273006931 -1 -1 -1
196 1 10.144221531546533 9.658192977532678 6.331009725842693 0 0 -1
210 2 9.186606851453629 11.11682296305923 4.071102591661436 0 0 -3
204 2 5.74512827423226 14.538229759127889 1.0074193622445986 0 0 -1
299 2 9.08760440665597 14.970252107124598 1.51808877707316 0 0 0
90 2 6.455079942500869 15.929278901222027 5.480088082170322 0 -1 -3
379 1 8.578235666528268 14.64965533235303 4.4980078124560325 0 0 0
250 1 12.86846984200542 9.985407123099405 3.76928673226942 0 0 0
226 1 10.580063499387169 9.856945264246596 3.1420410601017084 0 0 0
343 1 10.122137436299603 13.095002884548428 3.0935762988674558 0 0 0
3 2 9.575584772107097 12.267806174379338 2.906424917957513 0 -1 -1
219 2 13.558523985535471 9.679413307592382 5.460587664475421 0 0 0
359 2 11.327264004471962 11.431540350380981 2.346793260421104 -1 1 1
408 2 10.885684607515229 13.883253747956038 1.5093383276148726 0 0 0
321 2 12.29435823798366 12.240385189887904 4.62646815666624 -1 0 -1
294 2 12.447619342521204 11.080841224553527 5.632037267394097 0 0 -2
329 2 12.765779494984322 10.643697703985424 3.0433115379773747 0 1 -1
314 2 13.239163342806618 13.825933575640184 4.557082312643264 0 0 -2
218 2 9.56770791980443 12.391814783462607 5.874338670691328 0 0 -1
208 1 12.23347003051506 11.601701746609812 1.9737277087855754 0 0 0
238 1 11.615580305317401 11.47111727913968 5.046156461454773 0 0 0
385 1 12.989076841228893 13.369517935516557 0.49556274606864414 0 0 0
415 1 12.922966525588752 13.199527490468961 3.8923267816535656 0 0 0
350 2 12.02292184175472 12.152039934281145 1.2683867011615888 0 0 0
260 2 12.39246899922913 14.014591665977939 1.2697903421567396 0 0 3
338 2 13.7090260362093 13.80675532721469 0.881142252416882 0 0 -1
355 1 11.293058845215441 14.575757772401287 5.038921513866644 0 0 0
373 1 11.536550632048042 14.508033196537824 1.7976211646662192 0 0 0
262 1 14.903936975938525 11.622820079665004 4.586396006399399 0 0 0
347 2 12.044568149351543 10.210447485922414 4.271799948767681 0 0 0
215 2 11.34995376628207 14.116505904798622 5.95502093117933 0 0 -1
389 2 13.903422579332304 12.064040685939089 1.787210266407183 0 0 0
9 2 15.1826250709241 10.838939649907546 4.984724658544058 -1 0 -1
410 2 13.88487266122914 11.60855354786146 4.4031584734292135 0 0 0
191 2 15.793839182073375 9.061282515608966 3.758695806304559 -1 0 1
170 2 16.538387332418278 14.709578593386244 5.299310595847164 -1 0 1
319 1 19.041789880306588 12.965710826218173 3.3656772464363125 -1 0 0
289 1 18.574256599928127 13.037373682941075 0.4394398965883045 -1 0 0
369 2 15.322629796578516 12.19055289871064 1.0692596929103586 0 0 0
423 2 15.154156209970319 13.781488300296074 2.6774726420617707 0 0 -1
104 2 16.54176276116973 9.43883612512681 5.420168273137104 0 -1 0
280 1 14.716614699379802 11.6266511863584 1.5854156647730118 0 0 0
273 2 17.899982378728076 12.066614926077238 0.8315290832434189 0 0 1
261 2 18.27441868210657 12.098165721771046 4.49349618948075 0 0 -1
222 2 16.999835033512724 13.853361218243265 4.119772339784851 0 0 0
419 2 16.278701487599548 12.55969032351688 3.699218701481571 0 0 0
21 2 18.273411780945864 10.966666011656107 2.2741849188429493 -1 0 1
375 2 15.512303844413392 14.036060269680112 0.3696244913021207 0 0 0
256 1 17.68325777796786 11.327896458233264 1.5550041020996788 0 0 0
286 1 17.462605447329615 11.41514017119708 4.932641584859406 0 0 0
391 1 16.410707875667157 13.42620538017211 3.260490675341721 0 0 0
409 1 16.035080508967376 13.165646366008186 0.41778031433566465 0 0 0
344 2 17.323674831107166 10.986962300095984 4.076164002199616 -1 0 1
12 2 15.60928715103625 12.663462282581339 5.68349919307026 -1 -1 -1
357 2 18.265034368757775 13.665042074243946 5.829868580591512 0 -1 2
421 1 17.660173795110786 14.845406744599408 1.827918994492778 0 0 0
257 2 18.14876192206891 13.427405364739867 3.038293336011203 0 0 1
403 1 17.37636747431939 14.587916705108858 4.961662535112101 0 0 0
427 1 14.909261328799568 14.56955999371823 4.804836723949721 0 0 0
281 2 17.683720460066798 14.026730234504893 1.2810754149001884 0 0 0
311 2 17.92866034390475 15.517051483796934 1.2427921296255797 -1 0 -1
7 1 3.9398852782339597 19.068838162964354 3.1394399922230085 0 -1 0
173 2 2.4551760637779374 14.613509218372435 0.7990856722974176 0 -1 1
126 2 1.2833946724494556 14.91001335055683 1.9820406958601977 0 0 -1
331 1 2.432614920079718 14.400639756165846 5.141237509195072 0 0 0
80 2 3.53585043876828 1.9236010240593195 0.9219657029125201 0 0 0
422 2 18.0433992153737 3.279901649276056 5.887427281989707 0 1 0
225 2 1.6977473343985685 18.569999626617015 4.427649255805708 0 -1 -1
366 2 2.25785069729863 15.448267928587882 5.342867776570978 0 0 -1
301 1 2.13497422295263 14.527707135386533 1.7381209663116965 0 0 0
113 2 4.517087746691642 15.309825673322313 2.926529120516407 1 0 -1
122 2 4.403847469181337 15.34520586648655 5.805997686572875 1 0 -2
292 1 4.176301641323903 15.988927002509746 0.5260998976118019 0 0 0
310 1 2.6417540402810475 17.7122771050412 4.7734887409562035 0 0 0
322 1 3.8292074724842107 15.694002702025498 3.4511468422783214 0 0 0
328 1 2.49381277568001 17.644429812826502 1.760077060079956 0 0 0
57 2 3.12056867014907 15.737104474150046 2.8748341342723305 0 -1 1
339 2 3.2461822265862015 18.656037461728772 2.6447301825977005 0 0 -1
110 2 1.5565191314104725 17.531286912586427 2.054426482691041 1 -1 -1
182 2 4.9021171581803085 16.033429453528974 1.2339978061071926 0 -1 2
233 2 2.566931439738944 16.84307760431645 1.2504496525471114 0 0 0
334 1 5.214733391200631 17.658228696544935 4.723973437261471 0 0 0
107 2 1.170913684404615 17.00936908747326 5.960030183289373 1 -1 -1
92 2 4.624192768384146 17.87111917943015 1.8821346248377033 0 -1 1
62 2 5.605216304775493 17.035199375716722 4.041462939538489 0 -1 0
192 2 5.982524319606732 18.29005132547378 2.434902207249449 0 0 0
224 2 7.309130196810365 1.2971110111017141 2.634217370471517 0 0 -1
79 1 7.038161852363563 19.00295641167896 3.4318150954034286 0 -1 0
395 2 9.861535335884875 1.73825941683063 3.9221805377099703 0 1 -1
39 2 10.231349275594926 18.418389864417353 5.503811512850255 0 -1 1
307 1 5.336935226458995 14.374472556267333 4.794028505219609 0 0 0
36 2 7.5893202162781135 15.160718218065636 4.149736879847241 0 -1 -1
349 1 8.594661043145138 14.313183538558537 2.116651139391639 0 0 0
360 2 4.3737742437105975 14.29514533080846 4.913571517869753 0 0 0
77 2 8.636553918899352 13.91155867304833 3.83084632048666 0 -1 -1
304 1 5.53630555346706 17.70774627291496 1.8235616688256462 0 0 0
293 2 4.76402999704195 18.366151201016038 4.268501406428399 0 0 -1
44 2 7.737692965560484 18.34507611496144 5.735661787071743 0 -1 1
84 2 7.0913913557368895 16.62960753617711 2.824874998743456 0 0 1
49 1 6.8679488499002215 18.958085821093682 6.043467848633066 0 -1 -1
48 2 11.011481197907255 15.813133387046326 3.0272991941133562 0 -1 0
363 2 8.66449214035071 16.740663754162554 1.8372310993072838 0 0 0
23 2 7.910267830249089 17.04326984292493 4.235742642998653 0 -1 0
346 1 6.7131420302520715 15.92980640463497 3.3613388973040843 0 0 0
364 1 6.841692766406102 15.935730905558444 0.37296976190954634 0 0 0
358 1 8.471493218009941 17.516232792493668 4.85928979836741 0 0 0
376 1 8.379101423932209 17.676717265926612 1.8810451946575673 0 0 0
387 2 6.410117006501247 16.657513416661377 0.8061736214117332 0 0 2
290 2 9.126381833950546 16.897577627307793 5.217156669695713 0 0 0
180 2 6.053366487972908 18.350895871943568 5.224454113749847 0 0 0
420 2 8.59323410151625 18.153880775324325 2.6625595555418853 0 0 -1
71 2 8.72319871166767 15.678932556651917 5.994913242745833 0 0 -1
73 1 9.983740297612055 18.970357904650662 6.204937533000461 0 -1 -1
51 2 9.557343487690005 15.617400484633029 3.728256304511154 0 -1 -1
138 2 12.340892427093147 1.6508599152508725 3.5207971988401177 0 0 0
97 1 13.254074343804882 1.2266833973089804 0.45976392592911663 0 0 0
397 1 14.53039171995122 14.486638208800413 2.1747865246029825 0 0 0
186 2 12.162045217621984 13.68172332155881 3.6561255670568444 -1 0 -1
50 2 13.321603708245691 18.88196282030051 4.366774273416871 0 -1 -2
340 1 9.49491320202783 15.901198076452191 0.4159993203942428 0 0 0
348 2 13.34222627505615 18.52438408074808 1.2693634813573662 0 0 1
416 2 15.188151123860552 15.015596100262337 1.7118789480451193 0 0 0
370 1 10.047443156030933 16.171956365192834 3.081208610347072 0 0 0
297 2 10.164681327842525 15.461637321643897 5.919252195694394 0 0 -2
269 2 10.590188915893096 13.989408965435802 4.673538517457718 0 0 -1
240 2 12.101555975051772 17.028928127674476 5.000441817194277 0 0 1
200 2 10.684239470089425 17.718428172295617 1.2299518248246843 1 0 1
171 2 11.460015222774851 17.519831785932507 2.5922407948109343 0 -1 -1
315 2 12.601005460137246 15.115887546263808 6.122302130266361 0 0 -1
8 2 12.968349014396427 15.685043980155207 2.882154647195547 -1 -1 0
352 1 11.58774003490517 17.75056389145324 1.6706226267030198 0 0 0
382 1 11.716342043124763 17.785011097863176 5.033192804395117 0 0 0
394 1 12.740443522548194 16.27397208948441 3.478554275627361 0 0 0
412 1 13.160066435920758 15.989436362030734 6.137574904065499 0 0 -1
11 2 14.035667024136364 15.620171516194834 5.954206098056163 -1 -1 -1
99 2 12.189016727539359 18.42736439178703 5.613168876514408 0 -1 1
406 1 14.549160145224457 17.554409182508092 4.893940338322674 0 0 0
424 1 14.141301569039939 17.515884423469704 1.6587054173689926 0 0 0
230 2 13.735535037353523 17.30856313810306 2.465162744848474 0 -1 1
165 2 13.52384564792218 16.449429603097418 4.209538149207709 -1 0 0
228 2 15.2459173187187 13.924907627435315 4.166854852798557 0 0 1
14 2 16.017598185539782 18.32575980391376 2.913497175347048 -1 -1 1
404 2 15.6656496783897 16.244921548901253 5.670381985774167 0 0 1
288 2 1.1857503391386601 16.68065535096785 4.2980440901529615 1 0 1
298 1 1.2740883652251727 16.21741806453781 3.4507546731555774 0 0 0
429 2 3.3159277985016655 18.0327345960183 5.359348325187675 1 0 0
252 2 18.482540029130107 15.74283072299618 5.216528001672 0 0 -1
316 1 19.048845496827546 16.119478905625215 6.07970604579114 -1 0 -1
96 2 13.891049306747089 17.937557931708383 5.482341910279409 0 -1 0
129 2 15.019499790625053 15.240619702829264 4.15067905121671 0 -1 -1
254 2 13.612646774900389 16.91110040804594 0.8861512183551618 0 0 -2
212 2 18.649087226186708 15.639639711994532 3.4087833094392326 0 0 0
102 2 17.601387765666274 18.054532243591446 1.1057439227681403 0 -1 -1
72 2 15.57743137106604 18.64400390239109 6.129915362761034 0 -1 0
243 2 16.50913989904756 16.512718634171694 4.3391376009154925 0 0 0
158 2 17.221841682347723 17.294755090197814 2.5025101502253304 -1 0 1
131 2 16.610191698304007 15.526499265574325 3.0876364030634447 0 -1 0
345 2 15.408045762303583 16.494188832722358 1.117028163887878 0 -1 3
134 2 17.495604657135058 18.339856580955672 4.664570305591255 0 -1 1
407 2 17.513057238504377 17.477126020868038 5.933768439993555 0 0 0
388 1 15.999692774772598 16.056023399502795 0.5461711372743205 0 0 0
400 1 17.861293540848543 17.716368009959748 1.964479394952394 0 0 0
418 1 16.109807138870913 16.396213402218976 3.3932273072458705 0 0 0
430 1 17.076392124239955 17.54444015357865 5.088129776842015 0 0 0

Velocities

4 0.6648845807323334 1.0155478150946728 8.34272781087637
13 4.503031370229892 -15.949818041813346 3.4251948118776503
34 0.07924450808396752 -7.873465738519322 2.412072538263345
43 4.873922964617605 -19.446256638387062 -6.799465115083068
306 -19.159985627427783 -36.28912070387304 4.657545910570841
177 -6.290391569005816 -1.5728171213696291 20.325599137777676
266 -6.433696846810333 -30.249702152718797 -2.0548154520885187
38 -15.538969061884961 -38.37764558742208 0.9536297016995269