13.311924173025975 0.0 0.0 0.0 15.86354048658742 0.0 0.0 0.0 14.815372889127529
12.925580889219596 0.0 0.0 0.0 15.403143308484317 0.0 0.0 0.0 14.385395994848057
13.110236217720148 0.0 0.0 0.0 15.623193185696527 0.0 0.0 0.0 14.590906296149463
13.20223685045566 0.0 0.0 0.0 15.73282840771415 0.0 0.0 0.0 14.693297480346123
12.943074429373349 0.0 0.0 0.0 15.423989992921202 0.0 0.0 0.0 14.404865255426776
13.110758515624791 0.0 0.0 0.0 15.623815597141235 0.0 0.0 0.0 14.591487582379456
12.723791331889766 0.0 0.0 0.0 15.162674930595063 0.0 0.0 0.0 14.160816324913396
12.924058975568371 0.0 0.0 0.0 15.401329675946341 0.0 0.0 0.0 14.383702196269065
13.09295381927253 0.0 0.0 0.0 15.60259811439687 0.0 0.0 0.0 14.57167202362117
12.71643947293411 0.0 0.0 0.0 15.153913874666648 0.0 0.0 0.0 14.152634147007289
13.043524434594643 0.0 0.0 0.0 15.543694154693307 0.0 0.0 0.0 14.516660084237762
12.966779451598752 0.0 0.0 0.0 15.452238770101749 0.0 0.0 0.0 14.431247522862316
13.068039097948828 0.0 0.0 0.0 15.572907764204562 0.0 0.0 0.0 14.543943433671169
13.194686550046873 0.0 0.0 0.0 15.723830873273306 0.0 0.0 0.0 14.684894449009168
13.250660798437679 0.0 0.0 0.0 15.790534209621413 0.0 0.0 0.0 14.74719042901323
13.13180865579589 0.0 0.0 0.0 15.648900607130189 0.0 0.0 0.0 14.614915125381478
13.208319742465685 0.0 0.0 0.0 15.740077262381764 0.0 0.0 0.0 14.70006737417976
13.19479979396946 0.0 0.0 0.0 15.723965823677732 0.0 0.0 0.0 14.685020482700372
13.174455576194308 0.0 0.0 0.0 15.699722046583656 0.0 0.0 0.0 14.662378588969695
13.298237533709118 0.0 0.0 0.0 15.847230405932947 0.0 0.0 0.0 14.800140480766226
13.115392520438345 0.0 0.0 0.0 15.629337843363446 0.0 0.0 0.0 14.596644951696652
13.068561925030682 0.0 0.0 0.0 15.573530806258637 0.0 0.0 0.0 14.544525308843648
13.130333838916208 0.0 0.0 0.0 15.647143098825827 0.0 0.0 0.0 14.613273742683404
13.05694383942128 0.0 0.0 0.0 15.55968577761771 0.0 0.0 0.0 14.53159507664552
13.137669822555612 0.0 0.0 0.0 15.655885236473248 0.0 0.0 0.0 14.621438252315043
13.208078437658676 0.0 0.0 0.0 15.739789704510653 0.0 0.0 0.0 14.699798816407847
13.064372958249354 0.0 0.0 0.0 15.568538902513632 0.0 0.0 0.0 14.539863240154038
13.082299365359539 0.0 0.0 0.0 15.58990142541229 0.0 0.0 0.0 14.559814255683246
13.177831726783603 0.0 0.0 0.0 15.703745334341757 0.0 0.0 0.0 14.666136042006544
13.181308421042488 0.0 0.0 0.0 15.70788843787949 0.0 0.0 0.0 14.670005394115027
13.004276948582685 0.0 0.0 0.0 15.496923749810065 0.0 0.0 0.0 14.472979987155615
13.108054949267315 0.0 0.0 0.0 15.620593813887924 0.0 0.0 0.0 14.588478675237566
13.120701226192548 0.0 0.0 0.0 15.635664116527908 0.0 0.0 0.0 14.602553222678734
13.048358468392953 0.0 0.0 0.0 15.549454771256045 0.0 0.0 0.0 14.522040073813255
13.183675430695452 0.0 0.0 0.0 15.710709153575724 0.0 0.0 0.0 14.672639733838196
13.057675162323223 0.0 0.0 0.0 15.560557279762175 0.0 0.0 0.0 14.532408995156008
13.12179609383663 0.0 0.0 0.0 15.636968847307141 0.0 0.0 0.0 14.60377174467454
13.225733376860974 0.0 0.0 0.0 15.760828724804309 0.0 0.0 0.0 14.719447704443654
12.979053716946513 0.0 0.0 0.0 15.466865754357103 0.0 0.0 0.0 14.444908043738453
12.986790816909851 0.0 0.0 0.0 15.476085893904314 0.0 0.0 0.0 14.45351897177165
13.104578255008432 0.0 0.0 0.0 15.616450710350193 0.0 0.0 0.0 14.584609323129085
13.046121107156033 0.0 0.0 0.0 15.546788554854594 0.0 0.0 0.0 14.519550024998235
13.034951234642106 0.0 0.0 0.0 15.53347765234707 0.0 0.0 0.0 14.507118627082587
12.898949517031998 0.0 0.0 0.0 15.371407261507173 0.0 0.0 0.0 14.355756875485593
13.149605414490027 0.0 0.0 0.0 15.670108630734061 0.0 0.0 0.0 14.634721850002531
13.138652504631526 0.0 0.0 0.0 15.657056278066792 0.0 0.0 0.0 14.622531918504611
13.190442548835877 0.0 0.0 0.0 15.718773386154188 0.0 0.0 0.0 14.680171130301401
13.097014195992227 0.0 0.0 0.0 15.60743678006582 0.0 0.0 0.0 14.576190979287588
13.031426385257264 0.0 0.0 0.0 15.52927716335699 0.0 0.0 0.0 14.50319568120822
13.14960118107236 0.0 0.0 0.0 15.670103585859128 0.0 0.0 0.0 14.634717138462673
13.156277809910156 0.0 0.0 0.0 15.678059984235924 0.0 0.0 0.0 14.642147825761409
13.230769027175667 0.0 0.0 0.0 15.76682960353567 0.0 0.0 0.0 14.725052081104886
13.158435265388615 0.0 0.0 0.0 15.680630978623038 0.0 0.0 0.0 14.644548944261606
13.076100054363678 0.0 0.0 0.0 15.582513836684052 0.0 0.0 0.0 14.552914794503513
13.164156200188124 0.0 0.0 0.0 15.687448496483983 0.0 0.0 0.0 14.650916001437372
13.064338032553604 0.0 0.0 0.0 15.568497282295445 0.0 0.0 0.0 14.539824369950209
12.840077494248249 0.0 0.0 0.0 15.301250708268258 0.0 0.0 0.0 14.290235846448645
13.022324008096374 0.0 0.0 0.0 15.518430051644279 0.0 0.0 0.0 14.493065281570779
13.205228289214483 0.0 0.0 0.0 15.736393242462826 0.0 0.0 0.0 14.696626772198368
13.290348559886985 0.0 0.0 0.0 15.83782928149756 0.0 0.0 0.0 14.791360526240622
13.141335433077877 0.0 0.0 0.0 15.660253467554812 0.0 0.0 0.0 14.625517856889694
13.203471420882751 0.0 0.0 0.0 15.734299619366135 0.0 0.0 0.0 14.694671483157249
13.159375613287859 0.0 0.0 0.0 15.681751571467261 0.0 0.0 0.0 14.64559549505259
13.238887663906228 0.0 0.0 0.0 15.77650441243611 0.0 0.0 0.0 14.734087636667798
13.272899999795944 0.0 0.0 0.0 15.81703619885683 0.0 0.0 0.0 14.771941325772898
12.990485532178575 0.0 0.0 0.0 15.48048880850103 0.0 0.0 0.0 14.457630968182823
12.610428344430227 0.0 0.0 0.0 15.027582639062269 0.0 0.0 0.0 14.034650121650177
13.231259574447812 0.0 0.0 0.0 15.767414178418393 0.0 0.0 0.0 14.725598030785948
12.898066849448462 0.0 0.0 0.0 15.370355405083894 0.0 0.0 0.0 14.354774519425172
13.199271870557256 0.0 0.0 0.0 15.729295103433799 0.0 0.0 0.0 14.689997635617994
13.005437963377814 0.0 0.0 0.0 15.49830730676011 0.0 0.0 0.0 14.474272126961704
13.079284113626342 0.0 0.0 0.0 15.586308213242123 0.0 0.0 0.0 14.556458461419302
13.037834192073216 0.0 0.0 0.0 15.536913212175618 0.0 0.0 0.0 14.510327185725966
13.17525886719659 0.0 0.0 0.0 15.700679311601963 0.0 0.0 0.0 14.663272603657774
13.182532937102618 0.0 0.0 0.0 15.70934766795351 0.0 0.0 0.0 14.671368207018988
13.25876832244686 0.0 0.0 0.0 15.80019577572515 0.0 0.0 0.0 14.75621361678401
13.186461548697434 0.0 0.0 0.0 15.714029311890208 0.0 0.0 0.0 14.675740516007322
13.190401273013626 0.0 0.0 0.0 15.718724198623603 0.0 0.0 0.0 14.680125192787784
13.232059161209634 0.0 0.0 0.0 15.768367029171134 0.0 0.0 0.0 14.72648792287665
13.246026264446918 0.0 0.0 0.0 15.785011332789837 0.0 0.0 0.0 14.742032470753553
13.159489386387653 0.0 0.0 0.0 15.681887152481051 0.0 0.0 0.0 14.645722117686276
13.23090608407263 0.0 0.0 0.0 15.766992931361587 0.0 0.0 0.0 14.725204617207794
13.087262518396688 0.0 0.0 0.0 15.595815910660447 0.0 0.0 0.0 14.56533794722441
13.085919466641887 0.0 0.0 0.0 15.594215424088336 0.0 0.0 0.0 14.563843211204421
13.067947550291784 0.0 0.0 0.0 15.572798668784161 0.0 0.0 0.0 14.543841546621739
12.87183447687596 0.0 0.0 0.0 15.339094837569068 0.0 0.0 0.0 14.325579462694332
13.210303098642594 0.0 0.0 0.0 15.742440786287307 0.0 0.0 0.0 14.702274730603289
13.067307775046883 0.0 0.0 0.0 15.572036262060093 0.0 0.0 0.0 14.543129515160679
13.128641530203891 0.0 0.0 0.0 15.645126410071843 0.0 0.0 0.0 14.61139030462512
13.148430111910272 0.0 0.0 0.0 15.66870804733112 0.0 0.0 0.0 14.633413808749419
13.205654806044416 0.0 0.0 0.0 15.736901513612203 0.0 0.0 0.0 14.697101459839073
13.210411050793098 0.0 0.0 0.0 15.742569430598067 0.0 0.0 0.0 14.702394874869672
13.206323156858566 0.0 0.0 0.0 15.737697973242058 0.0 0.0 0.0 14.697845294194174
13.147379165974483 0.0 0.0 0.0 15.667455657129304 0.0 0.0 0.0 14.632244168979641
13.150779658715363 0.0 0.0 0.0 15.671507952918263 0.0 0.0 0.0 14.636028713370676
13.169565449611914 0.0 0.0 0.0 15.693894585428076 0.0 0.0 0.0 14.656936171491084
13.158995134875052 0.0 0.0 0.0 15.681298163332766 0.0 0.0 0.0 14.645172045407842
13.210591500221147 0.0 0.0 0.0 15.742784468392035 0.0 0.0 0.0 14.702595704256124
13.333987158373859 0.0 0.0 0.0 15.8898324829038 0.0 0.0 0.0 14.839927668040602
13.119437551018999 0.0 0.0 0.0 15.634158221360769 0.0 0.0 0.0 14.601146828031085
13.143016629068816 0.0 0.0 0.0 15.662256913512097 0.0 0.0 0.0 14.627388927155849
13.286273895382662 0.0 0.0 0.0 15.832973589375714 0.0 0.0 0.0 14.78682566912718
13.059073248507694 0.0 0.0 0.0 15.5622233497084 0.0 0.0 0.0 14.533964981194154
13.047769494160054 0.0 0.0 0.0 15.548752903031158 0.0 0.0 0.0 14.52138458083049
13.198118793420253 0.0 0.0 0.0 15.727921005624253 0.0 0.0 0.0 14.688714329949137
13.153716592221725 0.0 0.0 0.0 15.675007834902193 0.0 0.0 0.0 14.639297344147247
13.127115383135001 0.0 0.0 0.0 15.643307732658934 0.0 0.0 0.0 14.609691794506269
13.13749678160848 0.0 0.0 0.0 15.655679027210411 0.0 0.0 0.0 14.621245668123342
13.091011738917873 0.0 0.0 0.0 15.600283778021911 0.0 0.0 0.0 14.569510604711258
13.18534128054735 0.0 0.0 0.0 15.712694311861384 0.0 0.0 0.0 14.674493724772368
13.029494888446774 0.0 0.0 0.0 15.526975439169362 0.0 0.0 0.0 14.501046041147953
12.996564190770933 0.0 0.0 0.0 15.487732618293713 0.0 0.0 0.0 14.464396150476603
12.866763371688307 0.0 0.0 0.0 15.33305170801015 0.0 0.0 0.0 14.319935626886785
12.877355911867923 0.0 0.0 0.0 15.345674615698854 0.0 0.0 0.0 14.331724488554286
13.137129532625883 0.0 0.0 0.0 15.655241384310079 0.0 0.0 0.0 14.62083694204065
13.090355030002305 0.0 0.0 0.0 15.599501191798117 0.0 0.0 0.0 14.568779727090766
13.120034462910024 0.0 0.0 0.0 15.634869548726153 0.0 0.0 0.0 14.601811155151083
13.135524008975738 0.0 0.0 0.0 15.653328115492197 0.0 0.0 0.0 14.619050090549457
13.100058552471884 0.0 0.0 0.0 15.611064675751141 0.0 0.0 0.0 14.57957916538806
13.106422966756753 0.0 0.0 0.0 15.61864901460172 0.0 0.0 0.0 14.586662376622261
13.180643774468795 0.0 0.0 0.0 15.707096392515197 0.0 0.0 0.0 14.6692656823573
13.148660833173114 0.0 0.0 0.0 15.668982993014902 0.0 0.0 0.0 14.633670587671686
13.073784374899923 0.0 0.0 0.0 15.579754290096364 0.0 0.0 0.0 14.55033758220112
13.06599435721575 0.0 0.0 0.0 15.570471089612507 0.0 0.0 0.0 14.541667759919697
13.15105694757254 0.0 0.0 0.0 15.671838392226297 0.0 0.0 0.0 14.636337319231384
12.867306836681287 0.0 0.0 0.0 15.333699343829519 0.0 0.0 0.0 14.320540470816072
12.99447235326631 0.0 0.0 0.0 15.485239819468042 0.0 0.0 0.0 14.462068060844208
12.80163065335253 0.0 0.0 0.0 15.25543441535649 0.0 0.0 0.0 14.247446819342166
13.177088232805868 0.0 0.0 0.0 15.702859328181864 0.0 0.0 0.0 14.665308577818964
13.24490705465125 0.0 0.0 0.0 15.783677593979746 0.0 0.0 0.0 14.740786857403563
13.176936888124278 0.0 0.0 0.0 15.70267897390305 0.0 0.0 0.0 14.665140140269035
13.0293382519931 0.0 0.0 0.0 15.526788778796885 0.0 0.0 0.0 14.5008717141732
13.14680765458946 0.0 0.0 0.0 15.666774599013513 0.0 0.0 0.0 14.631608111098794
12.954958691118552 0.0 0.0 0.0 15.438152218073464 0.0 0.0 0.0 14.418091725693483
13.043515438582101 0.0 0.0 0.0 15.54368343433408 0.0 0.0 0.0 14.516650072215565
13.14133754978671 0.0 0.0 0.0 15.660255989992276 0.0 0.0 0.0 14.625520212659621
13.142480572556753 0.0 0.0 0.0 15.661618106223859 0.0 0.0 0.0 14.626792328421313
13.260156883441581 0.0 0.0 0.0 15.80185049470278 0.0 0.0 0.0 14.757759001857474
13.225344960790045 0.0 0.0 0.0 15.760365857529319 0.0 0.0 0.0 14.719015420661673
13.090998509487664 0.0 0.0 0.0 15.60026801278775 0.0 0.0 0.0 14.569495881149201
13.23272539531495 0.0 0.0 0.0 15.769160966363524 0.0 0.0 0.0 14.727229401461821
13.039001027817635 0.0 0.0 0.0 15.53830370582869 0.0 0.0 0.0 14.51162580389936
13.204544063084082 0.0 0.0 0.0 15.735577864551976 0.0 0.0 0.0 14.695865269568799
13.109661531271875 0.0 0.0 0.0 15.622508343924537 0.0 0.0 0.0 14.590266704613722
13.13960184854331 0.0 0.0 0.0 15.658187591270242 0.0 0.0 0.0 14.62358848131779
13.081281757587876 0.0 0.0 0.0 15.588688763600562 0.0 0.0 0.0 14.55868171928985
13.106222937771994 0.0 0.0 0.0 15.618410644261191 0.0 0.0 0.0 14.586439756363964
13.202499851528213 0.0 0.0 0.0 15.733141820569289 0.0 0.0 0.0 14.69359018475981
13.210765599522695 0.0 0.0 0.0 15.742991938873605 0.0 0.0 0.0 14.702789466332788
13.109347200010113 0.0 0.0 0.0 15.62213376196085 0.0 0.0 0.0 14.589916872779256
13.053828044018493 0.0 0.0 0.0 15.555972749667912 0.0 0.0 0.0 14.528127383309942
13.147784515716081 0.0 0.0 0.0 15.667938703904023 0.0 0.0 0.0 14.632695298921055
13.09511339145982 0.0 0.0 0.0 15.605171631221447 0.0 0.0 0.0 14.574075497891293
13.11260163984149 0.0 0.0 0.0 15.626012009564667 0.0 0.0 0.0 14.593538869045188
13.087767353453458 0.0 0.0 0.0 15.596417511996062 0.0 0.0 0.0 14.565899798352492
13.100505707212942 0.0 0.0 0.0 15.61159754066581 0.0 0.0 0.0 14.580076821785573
13.156965740281015 0.0 0.0 0.0 15.678879776412339 0.0 0.0 0.0 14.642913450988353
13.099052586598804 0.0 0.0 0.0 15.609865887345475 0.0 0.0 0.0 14.578459585729274
13.188589899429433 0.0 0.0 0.0 15.716565622762166 0.0 0.0 0.0 14.678109242670994
13.105495319110508 0.0 0.0 0.0 15.61754355638229 0.0 0.0 0.0 14.585629960450849
12.84671708068146 0.0 0.0 0.0 15.309162963989401 0.0 0.0 0.0 14.297625307773624
13.083988499008605 0.0 0.0 0.0 15.591914330510074 0.0 0.0 0.0 14.561694160086637
13.077668535609236 0.0 0.0 0.0 15.584382962846279 0.0 0.0 0.0 14.554660420020944
13.027322086829274 0.0 0.0 0.0 15.524386157110621 0.0 0.0 0.0 14.498627843315774
13.16639461977946 0.0 0.0 0.0 15.690115974104167 0.0 0.0 0.0 14.653407228137352
13.143058434068275 0.0 0.0 0.0 15.662306731652047 0.0 0.0 0.0 14.627435453611946
13.231314608877481 0.0 0.0 0.0 15.767479761792506 0.0 0.0 0.0 14.725659280804104
13.207133327164557 0.0 0.0 0.0 15.738663436182131 0.0 0.0 0.0 14.698746965134523
13.213612572903637 0.0 0.0 0.0 15.746384617265232 0.0 0.0 0.0 14.705957976887374
13.182856793554128 0.0 0.0 0.0 15.709733600885789 0.0 0.0 0.0 14.671728639818133
13.126329025803388 0.0 0.0 0.0 15.642370647140355 0.0 0.0 0.0 14.608816625977623
13.255665227297076 0.0 0.0 0.0 15.796497882400152 0.0 0.0 0.0 14.752760058068008
13.160275743719266 0.0 0.0 0.0 15.68282423799963 0.0 0.0 0.0 14.64659728621492
13.176085971173247 0.0 0.0 0.0 15.701664954041764 0.0 0.0 0.0 14.664193120757554
13.088114493702136 0.0 0.0 0.0 15.596831191740467 0.0 0.0 0.0 14.566286144620856
13.193645129300833 0.0 0.0 0.0 15.722589834040086 0.0 0.0 0.0 14.68373541020407
13.157346747871031 0.0 0.0 0.0 15.679333815156202 0.0 0.0 0.0 14.643337489575586
13.170103093655602 0.0 0.0 0.0 15.694535284544413 0.0 0.0 0.0 14.657534537053065
13.226586410520841 0.0 0.0 0.0 15.761845267103064 0.0 0.0 0.0 14.720397079725066
13.20649884369174 0.0 0.0 0.0 15.737907335551728 0.0 0.0 0.0 14.698040823098285
13.131035527894483 0.0 0.0 0.0 15.647979286845768 0.0 0.0 0.0 14.614054680414887
13.088465338191275 0.0 0.0 0.0 15.59724928575044 0.0 0.0 0.0 14.566676613486598
13.181209994081733 0.0 0.0 0.0 15.707771144537325 0.0 0.0 0.0 14.669895850813324
13.222551434307144 0.0 0.0 0.0 15.757036870683702 0.0 0.0 0.0 14.715906393297793
13.258031178595626 0.0 0.0 0.0 15.799317336877657 0.0 0.0 0.0 14.755393219906217
13.242924756828756 0.0 0.0 0.0 15.781315331292936 0.0 0.0 0.0 14.738580678864997
13.211197408124711 0.0 0.0 0.0 15.743506516116646 0.0 0.0 0.0 14.703270043398316
13.149033373927795 0.0 0.0 0.0 15.669426942008899 0.0 0.0 0.0 14.6340852031792
13.209508803652856 0.0 0.0 0.0 15.741494241628232 0.0 0.0 0.0 14.70139072793741
12.846524989354826 0.0 0.0 0.0 15.308934052789368 0.0 0.0 0.0 14.297411521652561
13.143283863559034 0.0 0.0 0.0 15.662575371242166 0.0 0.0 0.0 14.627686343109392
13.003605422705284 0.0 0.0 0.0 15.49612350652401 0.0 0.0 0.0 14.47223261914562
13.1114369208059 0.0 0.0 0.0 15.624624038349054 0.0 0.0 0.0 14.592242606641719
13.094369368304877 0.0 0.0 0.0 15.604284994452186 0.0 0.0 0.0 14.57324744476123
13.068024280986995 0.0 0.0 0.0 15.5728901071423 0.0 0.0 0.0 14.543926943281667
13.010505364325006 0.0 0.0 0.0 15.504346022053458 0.0 0.0 0.0 14.479911840171873
13.11180999073779 0.0 0.0 0.0 15.625068617952417 0.0 0.0 0.0 14.592657811091716
13.162700433687943 0.0 0.0 0.0 15.685713690116813 0.0 0.0 0.0 14.64929582066866
13.051936764675839 0.0 0.0 0.0 15.553718951792138 0.0 0.0 0.0 14.526022502878329
13.029198549210095 0.0 0.0 0.0 15.526622297924137 0.0 0.0 0.0 14.500716233357885
13.022618759801428 0.0 0.0 0.0 15.518781301061406 0.0 0.0 0.0 14.493393322533402
13.037124036259605 0.0 0.0 0.0 15.53606693440581 0.0 0.0 0.0 14.509536824914766
13.001776586273214 0.0 0.0 0.0 15.493944120553477 0.0 0.0 0.0 14.470197233926912
13.006069271787377 0.0 0.0 0.0 15.499059623734308 0.0 0.0 0.0 14.474974735343043
12.953748462843048 0.0 0.0 0.0 15.43671001445234 0.0 0.0 0.0 14.416744814236543
13.082998937628982 0.0 0.0 0.0 15.590735090994768 0.0 0.0 0.0 14.5605928376448
13.130658224544929 0.0 0.0 0.0 15.647529662367475 0.0 0.0 0.0 14.613634764425033
13.242701973224039 0.0 0.0 0.0 15.781049844749647 0.0 0.0 0.0 14.738332734079963
13.171087892440346 0.0 0.0 0.0 15.695708848575418 0.0 0.0 0.0 14.65863055901256
13.223517711889599 0.0 0.0 0.0 15.758188363386884 0.0 0.0 0.0 14.71698180227041
13.219806592127416 0.0 0.0 0.0 15.753765899899806 0.0 0.0 0.0 14.712851548642286
13.094767309565556 0.0 0.0 0.0 15.604759212695772 0.0 0.0 0.0 14.57369032950789
13.24255750784616 0.0 0.0 0.0 15.780877688392602 0.0 0.0 0.0 14.738171952782306
13.193917655563135 0.0 0.0 0.0 15.72291459786382 0.0 0.0 0.0 14.684038715582437
13.240288925153948 0.0 0.0 0.0 15.77817426603853 0.0 0.0 0.0 14.735647156360836
13.142149836801533 0.0 0.0 0.0 15.661223975369813 0.0 0.0 0.0 14.626424239369898
12.991571403810116 0.0 0.0 0.0 15.481782818921035 0.0 0.0 0.0 14.458839478156431
13.214462960677462 0.0 0.0 0.0 15.747398006517157 0.0 0.0 0.0 14.706904407456376
13.091656276757647 0.0 0.0 0.0 15.601051860230275 0.0 0.0 0.0 14.570227936654655
13.244494296428734 0.0 0.0 0.0 15.783185718673895 0.0 0.0 0.0 14.740327482267395
13.181878874073092 0.0 0.0 0.0 15.708568234776548 0.0 0.0 0.0 14.670640274110909
13.015025596038761 0.0 0.0 0.0 15.509732687261874 0.0 0.0 0.0 14.484942586855379
13.126305212829012 0.0 0.0 0.0 15.642342269718863 0.0 0.0 0.0 14.608790123565921
13.202661250576762 0.0 0.0 0.0 15.733334156426064 0.0 0.0 0.0 14.693769812216901
13.164371575311923 0.0 0.0 0.0 15.687705154496136 0.0 0.0 0.0 14.651155701027653
12.941403816926575 0.0 0.0 0.0 15.421999159151243 0.0 0.0 0.0 14.403005964010264
13.181329058953613 0.0 0.0 0.0 15.707913031644782 0.0 0.0 0.0 14.670028362871834
13.052613053148114 0.0 0.0 0.0 15.55452487056249 0.0 0.0 0.0 14.526775171370662
13.13395552773018 0.0 0.0 0.0 15.651458989329972 0.0 0.0 0.0 14.617304465032026
13.068767245787521 0.0 0.0 0.0 15.573775482692827 0.0 0.0 0.0 14.544753818526765
13.007092700508334 0.0 0.0 0.0 15.50027922224907 0.0 0.0 0.0 14.476113750103746
12.828918205278487 0.0 0.0 0.0 15.28795241794806 0.0 0.0 0.0 14.27781622738264
13.170015779416223 0.0 0.0 0.0 15.694431233998944 0.0 0.0 0.0 14.657437361543492
12.89627399706656 0.0 0.0 0.0 15.36821890055028 0.0 0.0 0.0 14.352779182295258
13.071196698351073 0.0 0.0 0.0 15.576670610294308 0.0 0.0 0.0 14.547457653462844
13.02671194550804 0.0 0.0 0.0 15.523659064511076 0.0 0.0 0.0 14.49794879263372
12.806450399366213 0.0 0.0 0.0 15.261178005466329 0.0 0.0 0.0 14.252810907470634
13.158946979749091 0.0 0.0 0.0 15.681240777880417 0.0 0.0 0.0 14.645118451641954
13.062444107324907 0.0 0.0 0.0 15.566240331372837 0.0 0.0 0.0 14.537716544806182
12.836968578149172 0.0 0.0 0.0 15.297545878240227 0.0 0.0 0.0 14.28677580936534
13.16984009258305 0.0 0.0 0.0 15.694221871689274 0.0 0.0 0.0 14.657241832639379
12.87965730354705 0.0 0.0 0.0 15.348417135833644 0.0 0.0 0.0 14.334285799409654
13.133993099311972 0.0 0.0 0.0 15.651503762594992 0.0 0.0 0.0 14.617346279948267
13.170658200547162 0.0 0.0 0.0 15.69519679376984 0.0 0.0 0.0 14.65815233771696
12.926866260658686 0.0 0.0 0.0 15.404675058635481 0.0 0.0 0.0 14.386826536137479
13.108495753881874 0.0 0.0 0.0 15.621119111490197 0.0 0.0 0.0 14.588969264325293
13.120270475944947 0.0 0.0 0.0 15.635150800503597 0.0 0.0 0.0 14.60207382349817
13.114091273683004 0.0 0.0 0.0 15.627787174931287 0.0 0.0 0.0 14.595196742132762
13.12719899313392 0.0 0.0 0.0 15.643407368938835 0.0 0.0 0.0 14.609784847418466
13.264840630912717 0.0 0.0 0.0 15.807432018205436 0.0 0.0 0.0 14.762971731768
13.191455923189876 0.0 0.0 0.0 15.719981003090988 0.0 0.0 0.0 14.681298955154942
13.20683645875067 0.0 0.0 0.0 15.73830966432754 0.0 0.0 0.0 14.69841656840197
13.30197193726847 0.0 0.0 0.0 15.851680616232153 0.0 0.0 0.0 14.804296647863572
13.065954139747916 0.0 0.0 0.0 15.570423163300656 0.0 0.0 0.0 14.541623000291047
13.019992982493577 0.0 0.0 0.0 15.515652217384963 0.0 0.0 0.0 14.490470989936401
13.170197287198686 0.0 0.0 0.0 15.694647533011642 0.0 0.0 0.0 14.657639368814905
13.210417930096808 0.0 0.0 0.0 15.742577628519832 0.0 0.0 0.0 14.702402531121942
13.195044803016927 0.0 0.0 0.0 15.724257795814408 0.0 0.0 0.0 14.685293163069659
13.175815561619777 0.0 0.0 0.0 15.701342712655492 0.0 0.0 0.0 14.663892171149115
13.042843912704699 0.0 0.0 0.0 15.542883191048022 0.0 0.0 0.0 14.515902704205567
13.224604641875558 0.0 0.0 0.0 15.759483635025623 0.0 0.0 0.0 14.718191490128984
13.133862921718716 0.0 0.0 0.0 15.651348632690837 0.0 0.0 0.0 14.61720140009763
13.18858090341689 0.0 0.0 0.0 15.716554902402935 0.0 0.0 0.0 14.678099230648794
13.133169699575772 0.0 0.0 0.0 15.650522534420755 0.0 0.0 0.0 14.61642988544586
13.134827611769545 0.0 0.0 0.0 15.652498233565918 0.0 0.0 0.0 14.618275042242798
13.191587688314755 0.0 0.0 0.0 15.720138024823237 0.0 0.0 0.0 14.681445601833024
13.188671392719518 0.0 0.0 0.0 15.716662736604603 0.0 0.0 0.0 14.678199939813261
13.060274480770657 0.0 0.0 0.0 15.563654832970295 0.0 0.0 0.0 14.535301880628895
13.122844393886378 0.0 0.0 0.0 15.638218084462125 0.0 0.0 0.0 14.604938439731907
13.04506804451141 0.0 0.0 0.0 15.545533642215313 0.0 0.0 0.0 14.51837802945853
13.165959106936985 0.0 0.0 0.0 15.689596982595559 0.0 0.0 0.0 14.652922528474448
13.233848309351076 0.0 0.0 0.0 15.770499119439181 0.0 0.0 0.0 14.728479137409188
13.440460258580634 0.0 0.0 0.0 16.01671424048511 0.0 0.0 0.0 14.95842584018473
12.903279774127954 0.0 0.0 0.0 15.376567537953026 0.0 0.0 0.0 14.360576191817966
13.106182191126951 0.0 0.0 0.0 15.618362087339973 0.0 0.0 0.0 14.58639440779283
13.004547358136154 0.0 0.0 0.0 15.497245991196333 0.0 0.0 0.0 14.473280936764052
13.098091600788432 0.0 0.0 0.0 15.608720700735958 0.0 0.0 0.0 14.57739006618148
13.123855651531542 0.0 0.0 0.0 15.639423178961456 0.0 0.0 0.0 14.606063908815516
13.132326191105658 0.0 0.0 0.0 15.649517343090599 0.0 0.0 0.0 14.615491111129131
12.916660019841173 0.0 0.0 0.0 15.392512495784308 0.0 0.0 0.0 14.375467602482034
13.224585062318848 0.0 0.0 0.0 15.759460302479061 0.0 0.0 0.0 14.718169699257139
13.392942791156527 0.0 0.0 0.0 15.960088672422618 0.0 0.0 0.0 14.905541749989744
13.139736788731442 0.0 0.0 0.0 15.658348396658695 0.0 0.0 0.0 14.623738661650771
13.173657047786904 0.0 0.0 0.0 15.69877045704965 0.0 0.0 0.0 14.661489874763957
13.098118059648852 0.0 0.0 0.0 15.608752231204283 0.0 0.0 0.0 14.577419513305594
13.164091111391496 0.0 0.0 0.0 15.687370931531905 0.0 0.0 0.0 14.650843561512053
13.166904217431103 0.0 0.0 0.0 15.690723250924078 0.0 0.0 0.0 14.653974379747773
13.17156573945949 0.0 0.0 0.0 15.696278288833344 0.0 0.0 0.0 14.659162374074045
13.20613265306356 0.0 0.0 0.0 15.73747095387013 0.0 0.0 0.0 14.69763327490056
13.131059870046068 0.0 0.0 0.0 15.648008294876627 0.0 0.0 0.0 14.61408177176907
13.157770089637712 0.0 0.0 0.0 15.679838302649378 0.0 0.0 0.0 14.643808643561396
12.89368632051771 0.0 0.0 0.0 15.365135220748224 0.0 0.0 0.0 14.349899253556982
12.810664237476333 0.0 0.0 0.0 15.266199547851558 0.0 0.0 0.0 14.25750065645691
12.880152084236862 0.0 0.0 0.0 15.349006755591299 0.0 0.0 0.0 14.334836460630573
13.016418390451149 0.0 0.0 0.0 15.511392451114434 0.0 0.0 0.0 14.486492683468702
12.805547623048763 0.0 0.0 0.0 15.260102185887126 0.0 0.0 0.0 14.251806171595891
13.24620565552055 0.0 0.0 0.0 15.785225109365072 0.0 0.0 0.0 14.742232122255041
12.917447964704412 0.0 0.0 0.0 15.393451473130987 0.0 0.0 0.0 14.37634453783813
13.224861821998816 0.0 0.0 0.0 15.759790111177727 0.0 0.0 0.0 14.718477716175363
13.20397943100277 0.0 0.0 0.0 15.734905004357948 0.0 0.0 0.0 14.695236867940222
12.982509244117063 0.0 0.0 0.0 15.470983633520177 0.0 0.0 0.0 14.448753838147644
13.13489375892059 0.0 0.0 0.0 15.652577059736728 0.0 0.0 0.0 14.618348660053082
13.212870137280317 0.0 0.0 0.0 15.745499872324071 0.0 0.0 0.0 14.705131690584757
13.152872025397194 0.0 0.0 0.0 15.674001382353302 0.0 0.0 0.0 14.638357391945554
13.096822633842802 0.0 0.0 0.0 15.607208499475155 0.0 0.0 0.0 14.575977782109009
13.023102427769862 0.0 0.0 0.0 15.519357678022361 0.0 0.0 0.0 14.493931615962191
13.24301683366301 0.0 0.0 0.0 15.7814250573227 0.0 0.0 0.0 14.738683154856911
13.111203553657019 0.0 0.0 0.0 15.624345939618442 0.0 0.0 0.0 14.591982883007043
13.049321041734947 0.0 0.0 0.0 15.55060184969366 0.0 0.0 0.0 14.523111360188492
13.12763609350802 0.0 0.0 0.0 15.643928252275543 0.0 0.0 0.0 14.610271313908816
13.103345801290176 0.0 0.0 0.0 15.614982021135676 0.0 0.0 0.0 14.58323767608789
13.177463419446589 0.0 0.0 0.0 15.70330643022269 0.0 0.0 0.0 14.665726138038886
13.177299374512 0.0 0.0 0.0 15.703110941319084 0.0 0.0 0.0 14.665543565869385
13.192977307663892 0.0 0.0 0.0 15.721794005019598 0.0 0.0 0.0 14.682992164791452
13.169773945432006 0.0 0.0 0.0 15.694143045518466 0.0 0.0 0.0 14.657168214829097
13.107415703199623 0.0 0.0 0.0 15.619832037773222 0.0 0.0 0.0 14.587767232718988
13.182723970074832 0.0 0.0 0.0 15.709575317934805 0.0 0.0 0.0 14.671580815255084
13.186991255082996 0.0 0.0 0.0 15.714660551866048 0.0 0.0 0.0 14.676330047432069
13.205166375481106 0.0 0.0 0.0 15.736319461166948 0.0 0.0 0.0 14.696557865927943
13.254666140727704 0.0 0.0 0.0 15.795307291916249 0.0 0.0 0.0 14.75164813466149
13.145284682583819 0.0 0.0 0.0 15.664959705256802 0.0 0.0 0.0 14.629913134634837
13.234556877633063 0.0 0.0 0.0 15.771343505380889 0.0 0.0 0.0 14.729267731392941
13.247509018984724 0.0 0.0 0.0 15.786778300234696 0.0 0.0 0.0 14.743682687588858
13.279253830536643 0.0 0.0 0.0 15.824607925520075 0.0 0.0 0.0 14.779012758157451
13.199380351884969 0.0 0.0 0.0 15.729424378353928 0.0 0.0 0.0 14.690118368826857
13.294433278758266 0.0 0.0 0.0 15.84269695519737 0.0 0.0 0.0 14.795906573261226
13.196359279202479 0.0 0.0 0.0 15.72582422948073 0.0 0.0 0.0 14.686756096195607
13.147044725978803 0.0 0.0 0.0 15.667057112009694 0.0 0.0 0.0 14.63187195733085
12.989135601120067 0.0 0.0 0.0 15.478880124007159 0.0 0.0 0.0 14.456128575910567
13.118817355330808 0.0 0.0 0.0 15.633419147183261 0.0 0.0 0.0 14.60045658744187
12.86770795300522 0.0 0.0 0.0 15.334177345729307 0.0 0.0 0.0 14.32098688921763
13.044619831415934 0.0 0.0 0.0 15.544999516081909 0.0 0.0 0.0 14.51787919517605
13.175996011047825 0.0 0.0 0.0 15.70155775044946 0.0 0.0 0.0 14.664093000535567
13.115191433099172 0.0 0.0 0.0 15.629098211804187 0.0 0.0 0.0 14.596421153553393
13.201450493124048 0.0 0.0 0.0 15.73189132219557 0.0 0.0 0.0 14.692422311817479
13.170848175164963 0.0 0.0 0.0 15.695423182532407 0.0 0.0 0.0 14.658363768068094
13.114999341772538 0.0 0.0 0.0 15.628869300604157 0.0 0.0 0.0 14.59620736743233
13.060714756208005 0.0 0.0 0.0 15.564179499963199 0.0 0.0 0.0 14.535791880774138
13.192425905012787 0.0 0.0 0.0 15.721136910059732 0.0 0.0 0.0 14.68237848672493
13.054728174449904 0.0 0.0 0.0 15.557045416200287 0.0 0.0 0.0 14.529129174472278
13.17458099119269 0.0 0.0 0.0 15.699871501003512 0.0 0.0 0.0 14.662518168337993
13.134004741210555 0.0 0.0 0.0 15.651517636001053 0.0 0.0 0.0 14.617359236682876
13.132838963820552 0.0 0.0 0.0 15.650128403566711 0.0 0.0 0.0 14.616061796394446
13.068378300539383 0.0 0.0 0.0 15.57331198480847 0.0 0.0 0.0 14.544320945802301
13.108383568313702 0.0 0.0 0.0 15.620985422304503 0.0 0.0 0.0 14.588844408519051
13.113404930843767 0.0 0.0 0.0 15.626969274582969 0.0 0.0 0.0 14.594432883733264
13.106250984164037 0.0 0.0 0.0 15.618444066557615 0.0 0.0 0.0 14.586470970315524
13.027937519922588 0.0 0.0 0.0 15.52511955580383 0.0 0.0 0.0 14.499312783422646
13.085612543861041 0.0 0.0 0.0 15.59384967065578 0.0 0.0 0.0 14.563501624564708
13.110782857776377 0.0 0.0 0.0 15.623844605172094 0.0 0.0 0.0 14.591514673733641
13.235265445915047 0.0 0.0 0.0 15.772187891322597 0.0 0.0 0.0 14.730056325376694
13.171686391862995 0.0 0.0 0.0 15.6964220677689 0.0 0.0 0.0 14.659296652960002
13.070460612854255 0.0 0.0 0.0 15.575793432665545 0.0 0.0 0.0 14.546638434470015
13.163011060709247 0.0 0.0 0.0 15.686083857814934 0.0 0.0 0.0 14.649641529905749
13.277263595056027 0.0 0.0 0.0 15.822236203692771 0.0 0.0 0.0 14.776797745481655
12.864682646905063 0.0 0.0 0.0 15.330572151981178 0.0 0.0 0.0 14.317619905046522
13.174090443920544 0.0 0.0 0.0 15.69928692612079 0.0 0.0 0.0 14.661972218656931
13.129427887535504 0.0 0.0 0.0 15.646063495590422 0.0 0.0 0.0 14.612265473153764
13.115153861517378 0.0 0.0 0.0 15.629053438539167 0.0 0.0 0.0 14.596379338637151
13.138298485079137 0.0 0.0 0.0 15.65663440040062 0.0 0.0 0.0 14.622137915983975
13.16646500034817 0.0 0.0 0.0 15.690199845149905 0.0 0.0 0.0 14.653485557487492
13.144669778667712 0.0 0.0 0.0 15.664226937172959 0.0 0.0 0.0 14.629228783470444
13.099267961722603 0.0 0.0 0.0 15.61012254535763 0.0 0.0 0.0 14.578699285319555
13.068044389720912 0.0 0.0 0.0 15.572914070298225 0.0 0.0 0.0 14.543949323095992
13.16100442073517 0.0 0.0 0.0 15.683692587097266 0.0 0.0 0.0 14.647408260013
12.73997198338959 0.0 0.0 0.0 15.181957073193724 0.0 0.0 0.0 14.178824419193612
13.113438269007895 0.0 0.0 0.0 15.62700900297306 0.0 0.0 0.0 14.594469987109647
12.94777299380632 0.0 0.0 0.0 15.42958917348612 0.0 0.0 0.0 14.410094475726806
12.646427211560104 0.0 0.0 0.0 15.070481733044732 0.0 0.0 0.0 14.074714700833702
12.916219744403824 0.0 0.0 0.0 15.391987828791404 0.0 0.0 0.0 14.374977602336791
12.993786010427076 0.0 0.0 0.0 15.484421919119727 0.0 0.0 0.0 14.46130420244471
12.792751588973566 0.0 0.0 0.0 15.24485342079643 0.0 0.0 0.0 14.23756495343224