-44875.90157175221
-44870.67093559882
-44876.897207307724
-44868.55324094258
-44869.331472643324
-44869.43148808472
-44867.6490376777
-44869.891859392774
-44873.50671105573
-44869.98941914284
-44870.57780300486
-44869.97967665107
-44875.387598371766
-44875.86964327496
-44874.68029069404
-44876.99857542702
-44870.43607713793
-44875.13767609694
-44874.669596756234
-44873.87527931803
-44876.769456119095
-44873.789793395044
-44869.33809956769
-44872.82783587271
-44874.54277048254
-44874.600287320674
-44876.56493726276
-44876.78627520335
-44876.30493031302
-44874.86990709994
-44867.896045749374
-44877.32180843535
-44873.61824439563
-44869.89857040031
-44870.742832836986
-44867.634153594954
-44871.49747281215
-44872.13398857813
-44873.09245583231
-44871.68702064537
-44876.35784257683
-44873.3538292017
-44871.514881022864
-44872.291551470465
-44875.87230754155
-44875.96938741886
-44876.03238626238
-44875.32445870933
-44875.09126640147
-44876.88680072214
-44876.831293852876
-44875.32756937867
-44876.59777147093
-44872.03065579692
-44872.74865523555
-44868.23002494136
-44868.9824905909
-44870.40315340431
-44874.816138357826
-44873.777227177976
-44874.51897780089
-44872.85372859291
-44872.96770170549
-44871.5494861479
-44874.43006229115
-44869.41907016969
-44870.93456574433
-44873.78391641642
-44870.87858117922
-44870.30629693246
-44873.14315336159
-44870.44099586768
-44869.08234249188
-44870.43249190205
-44870.80359245573
-44875.51289427723
-44875.49554919693
-44875.026860457285
-44874.28027886133
-44875.40766486257
-44872.093209870385
-44870.87671515857
-44873.81840738969
-44873.1139211243
-44873.110522694566
-44870.182907456554
-44874.23544837853
-44872.30561172857
-44876.4436231991
-44873.7464938247
-44875.91544343542
-44876.8662163987
-44875.472200332944
-44872.62864378082
-44874.659358337
-44877.16779975791
-44876.25418938158
-44876.3256423939
-44873.91220775102
-44878.037947839824
-44874.8097806901
-44876.453839305
-44870.56635612806
-44866.792849715996
-44873.233845094415
-44875.0100859997
-44874.39022482516
-44871.50076811074
-44876.406176389246
-44877.54313603561
-44872.04843449063
-44871.02200558073
-44869.94324972389
-44870.17181378352
-44874.83816161924
-44875.892363283856
-44876.81594391124
-44877.075642692056
-44875.300708477436
-44874.63067617783
-44875.936840154725
-44873.87282743629
-44876.56557101589
-44872.19015164991
-44873.429708417716
-44867.68781920593
-44870.43975625309
-44869.59517993311
-44876.70483234779
-44874.82863709066
-44876.748064706015
-44869.81816293791
-44875.07068888088
-44871.60077348392
-44868.111614604466
-44874.40083536007
-44873.912679188245
-44872.95794098211
-44873.30993941643
-44875.433112404535
-44874.319237535674
-44875.72229145441
-44876.25051951829
-44876.35747590343
-44876.58443068182
-44877.872772290735
-44876.8382039117
-44875.5965895551
-44874.79391781387
-44872.99399130374
-44875.13387874832
-44874.3902894522
-44873.49236086033
-44871.94706759585
-44873.16527499216
-44871.97640813445
-44874.96634070688
-44876.70221420449
-44875.6916696678
-44871.45450698943
-44870.826647981004
-44872.46601372064
-44872.12066384373
-44876.66645939848
-44877.3681126867
-44876.783812437054
-44874.929798403435
-44876.783194738644
-44876.055048311035
-44878.02901665546
-44876.60356341399
-44875.72362562856
-44877.634120290815
-44876.59434923124
-44873.92039470402
-44876.988384219534
-44876.603582598014
-44875.53243463593
-44874.74318545403
-44872.51743656936
-44875.363566093874
-44871.96518888087
-44872.28803766447
-44870.850773457874
-44873.102695067886
-44874.32715985797
-44875.20647409454
-44877.758546520454
-44872.3811371966
-44869.71494036281
-44873.69426184548
-44870.750845637136
-44869.40285912382
-44873.49219038101
-44871.991431131304
-44875.14809615216
-44875.74151262357
-44871.336886735065
-44867.8505680438
-44875.5215159321
-44868.28942412697
-44868.282503863884
-44871.27870049689
-44869.74291488993
-44871.23152466491
-44876.80182841403
-44877.83116186704
-44876.82328622289
-44876.710297346064
-44876.075359840346
-44877.23733463979
-44876.24906003572
-44876.567355810555
-44873.21761404817
-44875.78317420467
-44876.80149439429
-44876.20937536166
-44875.67140915983
-44877.382094439956
-44877.32514074141
-44876.06427868456
-44877.87353312103
-44875.757742581365
-44875.4903212098
-44873.02129928801
-44868.6856138487
-44878.23958106496
-44876.248232129365
-44872.93638711706
-44873.90510680433
-44875.35133852248
-44869.917590885525
-44872.72912984311
-44867.89231370808
-44871.26129936113
-44872.49772559528
-44870.39016935644
-44869.162907100035
-44868.676452456035
-44868.614132128365
-44876.39029868282
-44872.703527604426
-44875.40446956582
-44875.606430960244
-44873.69517138599
-44877.08392774211
-44876.45574410187
-44875.234386171534
-44874.30762045168
-44873.12334442653
-44872.054811070266
-44876.07454594786
-44872.68291348452
-44873.149868859015
-44870.775283364645
-44872.28613137097
-44874.79537498348
-44873.615290872025
-44872.50833368117
-44873.90769868866
-44876.549536571896
-44876.004269011544
-44875.376300069125
-44877.496825389586
-44874.45924922147
-44876.353864408564
-44876.60989754387
-44874.88518683621
-44873.4506602309
-44875.96382826919
-44875.1378199091
-44873.95390824439
-44872.4502901667
-44871.21066904397
-44870.35909558875
-44872.57403175792
-44871.20405858249
-44876.44310550252
-44876.22730249346
-44869.588009325285
-44876.14263223171
-44875.96841733302
-44876.49909755076
-44875.09335677998
-44878.069086642725
-44877.2583422363
-44877.1783115155
-44876.77194011027
-44876.85676479663
-44873.13314868814
-44874.14481052424
-44868.94502935902
-44868.72612452431
-44868.602500486275
-44875.71865261211
-44873.19730129434
-44873.790297758045
-44871.7959057734
-44871.41860442561
-44872.89474812141
-44876.50758437322
-44875.66875115186
-44876.87197976981
-44872.62939767221
-44874.3243151799
-44871.79929998537
-44875.10116086881
-44874.14559285153
-44876.098191960155
-44873.62912119393
-44872.72046016015
-44868.704162896676
-44873.922147389254
-44875.79927395599
-44875.99290159199
-44878.251192162454
-44875.13308703311
-44875.935953743894
-44877.64284507683
-44876.621942935046
-44874.68615175401
-44877.52480046094
-44874.56026359277
-44870.81222132162
-44877.99482650404
-44875.970270564314
-44878.040297678876
-44878.30762503511
-44868.48250290936
-44873.30505932685
-44869.176429525134
-44870.67219807098
-44876.95829876931
-44876.686991884235
-44875.04364811239
-44876.11979412541
-44877.484594688874
-44876.54158894301
-44876.26010527249
-44876.26498440967
-44874.21888576158
-44876.2873686301
-44877.16896794263
-44875.33891149164
-44877.34036687126
-44877.251806606124
-44875.333466221615
-44876.75720963579
-44876.85587335169
-44873.93109993455
-44875.737123019186
-44877.29459228949
-44878.357359145346
-44874.25957004581
-44874.86441801959
-44869.243389257696
-44874.57705805072
-44871.57959785711
-44875.87263775169
-44875.95050693621
-44875.578098739476
-44873.34257198825
-44875.72938736698
-44871.19543066901
-44871.78378459851
-44870.235033447425
-44874.554129194454
-44871.97616772187
-44870.188110545256
-44869.70575760921
-44873.231211032464
-44870.07500697245
-44873.63009508936
-44871.632466174546
-44874.48347646893
-44871.90832443567
-44876.292344639805
-44874.93782929915
-44875.08338734527
-44872.6863038869
-44873.92781456812
-44873.41709839032
-44874.806807166126
-44874.88120485836
-44872.3053046481
-44877.39020560926
-44872.879635190926
-44870.25984056947
-44870.80419654845
-44870.77209827216
-44874.18828343111
-44875.07824616246
-44875.51024089519
-44877.32617831149
-44875.1525386827
-44874.78661699958
