1.547153663635253906e+01 0.000000000000000000e+00 0.000000000000000000e+00 0.000000000000000000e+00 1.547153663635253906e+01 0.000000000000000000e+00 0.000000000000000000e+00 0.000000000000000000e+00 1.547153663635253906e+01
1.555245780944824219e+01 0.000000000000000000e+00 0.000000000000000000e+00 0.000000000000000000e+00 1.555245780944824219e+01 0.000000000000000000e+00 0.000000000000000000e+00 0.000000000000000000e+00 1.555245780944824219e+01
1.536620807647705078e+01 0.000000000000000000e+00 0.000000000000000000e+00 0.000000000000000000e+00 1.536620807647705078e+01 0.000000000000000000e+00 0.000000000000000000e+00 0.000000000000000000e+00 1.536620807647705078e+01
1.536445236206054688e+01 0.000000000000000000e+00 0.000000000000000000e+00 0.000000000000000000e+00 1.536445236206054688e+01 0.000000000000000000e+00 0.000000000000000000e+00 0.000000000000000000e+00 1.536445236206054688e+01
1.561049079895019531e+01 0.000000000000000000e+00 0.000000000000000000e+00 0.000000000000000000e+00 1.561049079895019531e+01 0.000000000000000000e+00 0.000000000000000000e+00 0.000000000000000000e+00 1.561049079895019531e+01
1.541108798980712891e+01 0.000000000000000000e+00 0.000000000000000000e+00 0.000000000000000000e+00 1.541108798980712891e+01 0.000000000000000000e+00 0.000000000000000000e+00 0.000000000000000000e+00 1.541108798980712891e+01
1.552470111846923828e+01 0.000000000000000000e+00 0.000000000000000000e+00 0.000000000000000000e+00 1.552470111846923828e+01 0.000000000000000000e+00 0.000000000000000000e+00 0.000000000000000000e+00 1.552470111846923828e+01
1.570316982269287109e+01 0.000000000000000000e+00 0.000000000000000000e+00 0.000000000000000000e+00 1.570316982269287109e+01 0.000000000000000000e+00 0.000000000000000000e+00 0.000000000000000000e+00 1.570316982269287109e+01
1.561585044860839844e+01 0.000000000000000000e+00 0.000000000000000000e+00 0.000000000000000000e+00 1.561585044860839844e+01 0.000000000000000000e+00 0.000000000000000000e+00 0.000000000000000000e+00 1.561585044860839844e+01
1.534763431549072266e+01 0.000000000000000000e+00 0.000000000000000000e+00 0.000000000000000000e+00 1.534763431549072266e+01 0.000000000000000000e+00 0.000000000000000000e+00 0.000000000000000000e+00 1.534763431549072266e+01
1.562613010406494141e+01 0.000000000000000000e+00 0.000000000000000000e+00 0.000000000000000000e+00 1.562613010406494141e+01 0.000000000000000000e+00 0.000000000000000000e+00 0.000000000000000000e+00 1.562613010406494141e+01
1.556996059417724609e+01 0.000000000000000000e+00 0.000000000000000000e+00 0.000000000000000000e+00 1.556996059417724609e+01 0.000000000000000000e+00 0.000000000000000000e+00 0.000000000000000000e+00 1.556996059417724609e+01
1.555738162994384766e+01 0.000000000000000000e+00 0.000000000000000000e+00 0.000000000000000000e+00 1.555738162994384766e+01 0.000000000000000000e+00 0.000000000000000000e+00 0.000000000000000000e+00 1.555738162994384766e+01
1.562742710113525391e+01 0.000000000000000000e+00 0.000000000000000000e+00 0.000000000000000000e+00 1.562742710113525391e+01 0.000000000000000000e+00 0.000000000000000000e+00 0.000000000000000000e+00 1.562742710113525391e+01
1.567766571044921875e+01 0.000000000000000000e+00 0.000000000000000000e+00 0.000000000000000000e+00 1.567766571044921875e+01 0.000000000000000000e+00 0.000000000000000000e+00 0.000000000000000000e+00 1.567766571044921875e+01
1.539644241333007812e+01 0.000000000000000000e+00 0.000000000000000000e+00 0.000000000000000000e+00 1.539644241333007812e+01 0.000000000000000000e+00 0.000000000000000000e+00 0.000000000000000000e+00 1.539644241333007812e+01
1.552046012878417969e+01 0.000000000000000000e+00 0.000000000000000000e+00 0.000000000000000000e+00 1.552046012878417969e+01 0.000000000000000000e+00 0.000000000000000000e+00 0.000000000000000000e+00 1.552046012878417969e+01
1.573776912689208984e+01 0.000000000000000000e+00 0.000000000000000000e+00 0.000000000000000000e+00 1.573776912689208984e+01 0.000000000000000000e+00 0.000000000000000000e+00 0.000000000000000000e+00 1.573776912689208984e+01
1.548443031311035156e+01 0.000000000000000000e+00 0.000000000000000000e+00 0.000000000000000000e+00 1.548443031311035156e+01 0.000000000000000000e+00 0.000000000000000000e+00 0.000000000000000000e+00 1.548443031311035156e+01
1.557864570617675781e+01 0.000000000000000000e+00 0.000000000000000000e+00 0.000000000000000000e+00 1.557864570617675781e+01 0.000000000000000000e+00 0.000000000000000000e+00 0.000000000000000000e+00 1.557864570617675781e+01
1.543649768829345703e+01 0.000000000000000000e+00 0.000000000000000000e+00 0.000000000000000000e+00 1.543649768829345703e+01 0.000000000000000000e+00 0.000000000000000000e+00 0.000000000000000000e+00 1.543649768829345703e+01
