-7.268769999999999953e-01 2.468980999999999870e+00 -3.078499999999999986e-02 -1.084945999999999966e+00 -2.329042999999999974e+00 1.506300000000000000e-02 -8.057760000000000478e-01 -2.362509999999999888e+00 3.886699999999999877e-02 1.532213000000000047e+00 -1.064829999999999943e-01 -8.078000000000000111e-03 5.486689999999999623e-01 1.165059000000000067e+00 -1.731020999999999921e+00 5.367180000000000284e-01 1.163996000000000031e+00 1.715953000000000062e+00
