6.561140060424804688e+00 7.144390106201171875e+00 2.515990018844604492e+00 1.263430023193359375e+01 4.891860008239746094e+00 1.070170021057128906e+01 7.571720123291015625e+00 9.154689788818359375e+00 5.106060028076171875e+00 1.282539963722229004e+00 1.045750045776367188e+01 1.248050022125244141e+01 3.034549951553344727e+00 5.237090110778808594e+00 1.111310005187988281e+01 1.515729999542236328e+01 8.578639984130859375e+00 1.032129955291748047e+01 1.315839958190917969e+01 1.359090042114257812e+01 4.430749893188476562e+00 7.738570213317871094e+00 4.038040161132812500e+00 9.652359962463378906e+00 9.812700271606445312e+00 8.719070434570312500e+00 2.118839979171752930e+00 2.382179975509643555e+00 2.671010017395019531e+00 9.009160041809082031e+00 7.132099866867065430e-01 6.602570056915283203e+00 1.206569957733154297e+01 1.494800001382827759e-01 1.266629981994628906e+01 8.841850280761718750e+00 1.438269996643066406e+01 7.772610187530517578e+00 1.505020046234130859e+01 1.028759956359863281e+01 2.755300045013427734e+00 9.707469940185546875e+00 1.114970016479492188e+01 1.315170001983642578e+01 1.092230033874511719e+01 4.959149837493896484e+00 8.652850151062011719e+00 6.492109775543212891e+00 6.782969951629638672e+00 7.222690105438232422e+00 3.450730085372924805e+00 7.199429988861083984e+00 6.601459980010986328e+00 2.034699916839599609e+00 1.210789966583251953e+01 4.252460002899169922e+00 1.018229961395263672e+01 1.226519966125488281e+01 4.533699989318847656e+00 1.153279972076416016e+01 6.948329925537109375e+00 9.620710372924804688e+00 5.740320205688476562e+00 8.249150276184082031e+00 8.995969772338867188e+00 5.799779891967773438e+00 8.971499800682067871e-01 9.619009971618652344e+00 1.285089969635009766e+01 1.103299975395202637e+00 1.113290023803710938e+01 1.316720008850097656e+01 2.359669923782348633e+00 5.907800197601318359e+00 1.124829959869384766e+01 3.819880008697509766e+00 5.455060005187988281e+00 1.156709957122802734e+01 1.417580032348632812e+01 8.698550224304199219e+00 1.026220035552978516e+01 1.555090045928955078e+01 9.440870285034179688e+00 1.036890029907226562e+01 1.380189990997314453e+01 1.342010021209716797e+01 3.735519886016845703e+00 1.230049991607666016e+01 1.327630043029785156e+01 4.121280193328857422e+00 7.016230106353759766e+00 4.292630195617675781e+00 9.126059532165527344e+00 7.369679927825927734e+00 4.403369903564453125e+00 1.050129985809326172e+01 9.544300079345703125e+00 7.812459945678710938e+00 1.897719979286193848e+00 9.023790359497070312e+00 9.278530120849609375e+00 2.006150007247924805e+00 1.673460006713867188e+00 3.022160053253173828e+00 9.534760475158691406e+00 2.349960088729858398e+00 1.768219947814941406e+00 8.594300270080566406e+00 1.732300072908401489e-01 5.827270030975341797e+00 1.220510005950927734e+01 1.645800024271011353e-01 7.125730037689208984e+00 1.139410018920898438e+01 1.490450000762939453e+01 1.297630023956298828e+01 8.883099555969238281e+00 5.605999827384948730e-01 1.280249977111816406e+01 9.741669654846191406e+00 1.395639991760253906e+01 6.875460147857666016e+00 1.504240036010742188e+01 1.377760028839111328e+01 8.509409904479980469e+00 1.502120018005371094e+01 1.022290039062500000e+01 2.782109975814819336e+00 8.736359596252441406e+00 9.356949806213378906e+00 3.043430089950561523e+00 1.000860023498535156e+01 1.084340000152587891e+01 1.233650016784667969e+01 1.132960033416748047e+01 1.030179977416992188e+01 1.343579959869384766e+01 1.047799968719482422e+01 4.622499942779541016e+00 8.042819976806640625e+00 7.167210102081298828e+00 4.195519924163818359e+00 9.153389930725097656e+00 6.215240001678466797e+00
1.287269973754882812e+01 7.552720069885253906e+00 1.107040023803710938e+01 1.417459964752197266e+01 1.319299936294555664e-01 2.972009897232055664e+00 5.619599819183349609e+00 3.878099918365478516e+00 3.431799888610839844e+00 1.186380004882812500e+01 9.925439834594726562e+00 1.320829963684082031e+01 3.627480030059814453e+00 6.914659976959228516e+00 6.576270103454589844e+00 6.544320106506347656e+00 7.049930095672607422e+00 2.423199892044067383e+00 1.170769977569580078e+01 3.662669897079467773e+00 1.279510021209716797e+01 5.654729843139648438e+00 1.126889991760253906e+01 8.087129592895507812e+00 1.144979953765869141e+01 4.403570175170898438e+00 3.057590007781982422e+00 1.103960037231445312e+01 5.389319896697998047e+00 1.040979957580566406e+01 1.128949999809265137e+00 1.428829956054687500e+01 7.177309989929199219e+00 5.338260173797607422e+00 5.475080013275146484e+00 1.533810043334960938e+01 1.046160030364990234e+01 1.125510025024414062e+01 1.117800045013427734e+01 1.487199974060058594e+01 1.263790035247802734e+01 1.204749941825866699e+00 1.210799980163574219e+01 8.791460037231445312e+00 2.103300094604492188e+00 1.471269989013671875e+01 9.736089706420898438e+00 1.482269954681396484e+01 1.322539997100830078e+01 8.446149826049804688e+00 1.086900043487548828e+01 1.250520038604736328e+01 7.749060153961181641e+00 1.194789981842041016e+01 1.324470043182373047e+01 3.922100067138671875e-01 2.818530082702636719e+00 1.429269981384277344e+01 1.471280002593994141e+01 2.603369951248168945e+00 5.393559932708740234e+00 3.438509941101074219e+00 4.270790100097656250e+00 5.114719867706298828e+00 3.403840065002441406e+00 2.751420021057128906e+00 1.147280025482177734e+01 1.062959957122802734e+01 1.262469959259033203e+01 1.122500038146972656e+01 9.902210235595703125e+00 1.395940017700195312e+01 3.070169925689697266e+00 6.616260051727294922e+00 5.841609954833984375e+00 4.593649864196777344e+00 6.547760009765625000e+00 6.636030197143554688e+00 6.497600078582763672e+00 6.306869983673095703e+00 3.091749906539916992e+00 7.465189933776855469e+00 7.318459987640380859e+00 2.356580018997192383e+00 1.171249961853027344e+01 4.166069984436035156e+00 1.194999980926513672e+01 1.115900039672851562e+01 4.141930103302001953e+00 1.339239978790283203e+01 5.154779911041259766e+00 1.168309974670410156e+01 7.378069877624511719e+00 5.978360176086425781e+00 1.048180007934570312e+01 7.697040081024169922e+00 1.101879978179931641e+01 5.269609928131103516e+00 2.838459968566894531e+00 1.093999958038330078e+01 3.781100034713745117e+00 2.529880046844482422e+00 1.042240047454833984e+01 5.115570068359375000e+00 9.695010185241699219e+00 1.170740032196044922e+01 6.031479835510253906e+00 1.001280021667480469e+01 5.585399866104125977e-01 1.496490001678466797e+01 6.696290016174316406e+00 4.862700104713439941e-01 1.361069965362548828e+01 7.491469860076904297e+00 4.633550167083740234e+00 5.164730072021484375e+00 3.983600139617919922e-01 5.652919769287109375e+00 6.234409809112548828e+00 2.634199857711791992e-01 9.634980201721191406e+00 1.139659976959228516e+01 1.169950008392333984e+01 1.030500030517578125e+01 1.132209968566894531e+01 1.017179965972900391e+01 1.541460037231445312e+01 1.209720039367675781e+01 5.966799855232238770e-01 1.402460002899169922e+01 1.270300006866455078e+01 7.560899853706359863e-01 1.303289985656738281e+01 8.931639671325683594e+00 1.834300041198730469e+00 1.178299999237060547e+01 9.688110351562500000e+00 2.355940103530883789e+00 1.492380046844482422e+01 8.842860221862792969e+00 1.453520011901855469e+01 1.395930004119873047e+01 9.960350036621093750e+00 1.422319984436035156e+01
5.402040004730224609e+00 1.432929992675781250e+01 6.534659862518310547e+00 1.229440021514892578e+01 7.789110183715820312e+00 1.145989990234375000e+01 1.001869964599609375e+01 6.784719944000244141e+00 1.425940036773681641e+01 1.131489992141723633e+00 3.415839910507202148e+00 5.555970191955566406e+00 1.427630043029785156e+01 1.475000000000000000e+01 1.427009963989257812e+01 8.946649551391601562e+00 1.537979984283447266e+01 1.517730045318603516e+01 1.424479961395263672e+01 7.637539863586425781e+00 9.203720092773437500e+00 9.963509559631347656e+00 8.910679817199707031e+00 1.104380035400390625e+01 4.122399806976318359e+00 8.075039863586425781e+00 1.713199973106384277e+00 1.560219955444335938e+01 1.490769958496093750e+01 1.184249973297119141e+01 1.145079994201660156e+01 8.039580345153808594e+00 7.970759868621826172e+00 1.141579985618591309e+00 6.875609874725341797e+00 4.231140136718750000e+00 1.215769958496093750e+01 6.691370010375976562e+00 1.939100027084350586e-01 6.657820224761962891e+00 1.836699962615966797e+00 9.265740394592285156e+00 2.340640068054199219e+00 1.560999965667724609e+01 5.644080162048339844e+00 1.108119964599609375e+01 1.085550022125244141e+01 9.403679847717285156e+00 4.740739822387695312e+00 1.359479999542236328e+01 6.569799900054931641e+00 6.188169956207275391e+00 1.386310005187988281e+01 6.232600212097167969e+00 1.268719959259033203e+01 8.375069618225097656e+00 1.204969978332519531e+01 1.271300029754638672e+01 7.800030231475830078e+00 1.061190032958984375e+01 1.094639968872070312e+01 6.565139770507812500e+00 1.456280040740966797e+01 9.851249694824218750e+00 6.324110031127929688e+00 1.344699954986572266e+01 1.029180049896240234e+00 4.272309780120849609e+00 5.117889881134033203e+00 1.554430007934570312e+00 3.557899951934814453e+00 6.425990104675292969e+00 1.517539978027343750e+01 1.446630001068115234e+01 1.437860012054443359e+01 1.411550045013427734e+01 1.528219985961914062e+01 1.506750011444091797e+01 9.795820236206054688e+00 1.499320030212402344e+01 1.547809982299804688e+01 8.959919929504394531e+00 6.035100221633911133e-01 1.553479957580566406e+01 1.488500022888183594e+01 8.117770195007324219e+00 8.618539810180664062e+00 1.342360019683837891e+01 7.589630126953125000e+00 8.652819633483886719e+00 1.080770015716552734e+01 8.380999565124511719e+00 1.112670040130615234e+01 9.528590202331542969e+00 8.758910179138183594e+00 1.183660030364990234e+01 3.952769994735717773e+00 7.195889949798583984e+00 1.165189981460571289e+00 4.820690155029296875e+00 8.685620307922363281e+00 1.334929943084716797e+00 5.364000052213668823e-02 1.469130039215087891e+01 1.090079975128173828e+01 1.514039993286132812e+01 5.161999911069869995e-02 1.196329975128173828e+01 1.091880035400390625e+01 8.830439567565917969e+00 7.758979797363281250e+00 1.106560039520263672e+01 7.294260025024414062e+00 7.495769977569580078e+00 5.667399764060974121e-01 7.550630092620849609e+00 4.588359832763671875e+00 1.769940018653869629e+00 7.236599922180175781e+00 3.635620117187500000e+00 1.291059970855712891e+01 6.252980232238769531e+00 1.545030021667480469e+01 1.210379981994628906e+01 6.166810035705566406e+00 9.839599728584289551e-01 6.178909778594970703e+00 2.494549989700317383e+00 8.704509735107421875e+00 7.531290054321289062e+00 2.186000108718872070e+00 9.567139625549316406e+00 2.317219972610473633e+00 5.993899703025817871e-01 4.966279983520507812e+00 3.266129970550537109e+00 1.540779972076416016e+01 5.902110099792480469e+00 1.054010009765625000e+01 1.050430011749267578e+01 1.007619953155517578e+01 1.129619979858398438e+01 1.174069976806640625e+01 9.736940383911132812e+00
1.072990036010742188e+01 1.274240016937255859e+01 7.886189937591552734e+00 1.205379962921142578e+01 2.197510004043579102e+00 9.961159706115722656e+00 2.331899881362915039e+00 1.554440021514892578e+01 1.068039989471435547e+01 1.493929982185363770e+00 1.748129963874816895e+00 1.349969959259033203e+01 1.408139991760253906e+01 1.315909957885742188e+01 1.485130023956298828e+01 1.207409954071044922e+01 6.137680053710937500e+00 3.940579891204833984e+00 5.602119922637939453e+00 1.070549964904785156e+01 2.338999986648559570e+00 1.491629981994628906e+01 8.856530189514160156e+00 8.161890029907226562e+00 1.323540019989013672e+01 1.271030044555664062e+01 4.186970233917236328e+00 9.425140380859375000e+00 3.549880027770996094e+00 4.962910175323486328e+00 3.975640058517456055e+00 8.517120361328125000e+00 1.307859992980957031e+01 1.114729976654052734e+01 1.503340005874633789e+00 1.362749958038330078e+01 1.374860000610351562e+01 1.293519973754882812e+01 7.831630229949951172e+00 1.744359970092773438e+00 1.260459995269775391e+01 3.188159942626953125e+00 6.746100187301635742e-01 5.335140228271484375e+00 1.822800040245056152e-01 2.860600054264068604e-01 2.852900028228759766e+00 8.814820289611816406e+00 1.076239967346191406e+01 1.293130016326904297e+01 6.937389850616455078e+00 9.941949844360351562e+00 1.220750045776367188e+01 8.206339836120605469e+00 1.197959995269775391e+01 1.569069981575012207e+00 1.065849971771240234e+01 1.191919994354248047e+01 3.078299999237060547e+00 1.029629993438720703e+01 2.847160100936889648e+00 1.550712013244628906e+01 1.149790000915527344e+01 1.509320020675659180e+00 1.534556007385253906e+01 1.111050033569335938e+01 8.837500214576721191e-01 2.409579992294311523e+00 1.315340042114257812e+01 1.028710007667541504e+00 1.363190054893493652e+00 1.426299953460693359e+01 1.502460002899169922e+01 1.293099975585937500e+01 1.471469974517822266e+01 1.363910007476806641e+01 1.236089992523193359e+01 1.450839996337890625e+01 1.222039985656738281e+01 6.896019935607910156e+00 4.484670162200927734e+00 1.155350017547607422e+01 5.340760231018066406e+00 4.229879856109619141e+00 5.958769798278808594e+00 1.008150005340576172e+01 2.992369890213012695e+00 6.267930030822753906e+00 1.079699993133544922e+01 1.672749996185302734e+00 1.470610046386718750e+01 9.593119621276855469e+00 7.512839794158935547e+00 1.482709980010986328e+01 7.993410110473632812e+00 7.688089847564697266e+00 1.413430023193359375e+01 1.311649990081787109e+01 4.164400100708007812e+00 1.289140033721923828e+01 1.270880031585693359e+01 3.281280040740966797e+00 9.992500305175781250e+00 2.879960060119628906e+00 5.291359901428222656e+00 8.671279907226562500e+00 3.755880117416381836e+00 5.509250164031982422e+00 3.575730085372924805e+00 8.226969718933105469e+00 1.228419971466064453e+01 4.278570175170898438e+00 7.717380046844482422e+00 1.359459972381591797e+01 1.139620018005371094e+01 1.074599981307983398e+00 1.445470046997070312e+01 1.085569953918457031e+01 2.368069887161254883e+00 1.382800006866455078e+01 1.279049968719482422e+01 1.273460006713867188e+01 7.883049964904785156e+00 1.400109958648681641e+01 1.366119956970214844e+01 8.368519783020019531e+00 1.949309945106506348e+00 1.231490039825439453e+01 4.073949813842773438e+00 8.301399946212768555e-01 1.242430019378662109e+01 2.871829986572265625e+00 1.110710024833679199e+00 4.455760002136230469e+00 4.439000040292739868e-02 8.371700048446655273e-01 5.549339771270751953e+00 1.120360016822814941e+00 9.931499958038330078e-01 2.397069931030273438e+00 8.402059555053710938e+00 1.506120014190673828e+01 2.194010019302368164e+00 8.802669525146484375e+00
7.153490066528320312e+00 6.716559886932373047e+00 1.841109991073608398e+00 1.273740005493164062e+01 4.432489871978759766e+00 1.218290042877197266e+01 8.396579742431640625e+00 7.957660198211669922e+00 5.063439846038818359e+00 1.544209957122802734e+01 1.071450042724609375e+01 1.319340038299560547e+01 2.786649942398071289e+00 5.024350166320800781e+00 1.074400043487548828e+01 2.898299992084503174e-01 8.540900230407714844e+00 1.101089954376220703e+01 1.276860046386718750e+01 1.388399982452392578e+01 4.261710166931152344e+00 6.896420001983642578e+00 3.250329971313476562e+00 7.847109794616699219e+00 9.893449783325195312e+00 8.960749626159667969e+00 2.868949890136718750e+00 2.732919931411743164e+00 3.071690082550048828e+00 8.641810417175292969e+00 6.036599874496459961e-01 5.813650131225585938e+00 1.212679958343505859e+01 1.457050037384033203e+01 1.365929985046386719e+01 9.264349937438964844e+00 1.429290008544921875e+01 7.875760078430175781e+00 3.800399899482727051e-01 9.726650238037109375e+00 2.009860038757324219e+00 8.261190414428710938e+00 1.221969985961914062e+01 1.431050014495849609e+01 1.065649986267089844e+01 6.032460212707519531e+00 9.606030464172363281e+00 6.797709941864013672e+00 6.888750076293945312e+00 6.098659992218017578e+00 1.162430047988891602e+00 7.915279865264892578e+00 6.298560142517089844e+00 2.297600030899047852e+00 1.186520004272460938e+01 4.589399814605712891e+00 1.263020038604736328e+01 1.232450008392333984e+01 3.943170070648193359e+00 1.147029972076416016e+01 7.928639888763427734e+00 7.592949867248535156e+00 4.250309944152832031e+00 7.776679992675781250e+00 8.694250106811523438e+00 5.245600223541259766e+00 1.451130008697509766e+01 1.059809970855712891e+01 1.344460010528564453e+01 2.899999916553497314e-01 1.076599979400634766e+01 1.408399963378906250e+01 1.892770051956176758e+00 5.172239780426025391e+00 1.116100025177001953e+01 3.426789999008178711e+00 5.475049972534179688e+00 1.141329956054687500e+01 3.168700039386749268e-01 9.115159988403320312e+00 1.184700012207031250e+01 4.963900148868560791e-01 9.239219665527343750e+00 1.031529998779296875e+01 1.199909973144531250e+01 1.369709968566894531e+01 3.684429883956909180e+00 1.297869968414306641e+01 1.482670021057128906e+01 4.150370121002197266e+00 7.156489849090576172e+00 4.148530006408691406e+00 8.028800010681152344e+00 5.975669860839843750e+00 3.378249883651733398e+00 8.061070442199707031e+00 9.690239906311035156e+00 8.133199691772460938e+00 2.354909896850585938e+00 9.643300056457519531e+00 8.819549560546875000e+00 3.766319990158081055e+00 2.168849945068359375e+00 2.480299949645996094e+00 8.092709541320800781e+00 2.386850118637084961e+00 3.719589948654174805e+00 9.250020027160644531e+00 1.535089969635009766e+01 5.418660163879394531e+00 1.195499992370605469e+01 3.941200077533721924e-01 6.713069915771484375e+00 1.179100036621093750e+01 1.375549983978271484e+01 1.384280014038085938e+01 9.755419731140136719e+00 1.433539962768554688e+01 1.324009990692138672e+01 8.404470443725585938e+00 1.357030010223388672e+01 7.290550231933593750e+00 9.156999737024307251e-02 1.517490005493164062e+01 7.515480041503906250e+00 2.514399886131286621e-01 9.823610305786132812e+00 1.507019996643066406e+00 7.393000125885009766e+00 8.812999725341796875e+00 2.242019891738891602e+00 8.299469947814941406e+00 1.128890037536621094e+01 1.421990013122558594e+01 1.085589981079101562e+01 1.242319965362548828e+01 1.527970027923583984e+01 1.087619972229003906e+01 5.898729801177978516e+00 1.053139972686767578e+01 7.093460083007812500e+00 5.318580150604248047e+00 9.129570007324218750e+00 7.227709770202636719e+00
1.332530021667480469e+01 8.090669631958007812e+00 1.126850032806396484e+01 1.455350017547607422e+01 5.325599908828735352e-01 2.559319972991943359e+00 4.957059860229492188e+00 3.117269992828369141e+00 2.161040067672729492e+00 1.297439956665039062e+01 1.006159973144531250e+01 1.433360004425048828e+01 2.524519920349121094e+00 6.087639808654785156e+00 6.873390197753906250e+00 6.759970188140869141e+00 7.081459999084472656e+00 3.205440044403076172e+00 1.200489997863769531e+01 3.078929901123046875e+00 1.238640022277832031e+01 5.414309978485107422e+00 1.165200042724609375e+01 9.684390068054199219e+00 1.217619991302490234e+01 3.997999906539916992e+00 3.494290113449096680e+00 1.100839996337890625e+01 5.781000137329101562e+00 1.052830028533935547e+01 5.319300293922424316e-01 1.484659957885742188e+01 5.642230033874511719e+00 4.284210205078125000e+00 6.164680004119873047e+00 1.513029956817626953e+01 8.471759796142578125e+00 1.139640045166015625e+01 1.066609954833984375e+01 1.524139976501464844e+01 1.264330005645751953e+01 2.124399989843368530e-01 1.263440036773681641e+01 9.340809822082519531e+00 2.164200067520141602e+00 4.129999876022338867e-01 8.461660385131835938e+00 1.490410041809082031e+01 1.310470008850097656e+01 8.836119651794433594e+00 1.181169986724853516e+01 1.432540035247802734e+01 8.209259986877441406e+00 1.115659999847412109e+01 1.542350006103515625e+01 5.545899868011474609e-01 3.047760009765625000e+00 1.471450042724609375e+01 6.812800168991088867e-01 1.641649961471557617e+00 5.044809818267822266e+00 2.907560110092163086e+00 3.091510057449340820e+00 4.197669982910156250e+00 2.596689939498901367e+00 1.893880009651184082e+00 1.311250019073486328e+01 1.099499988555908203e+01 1.432079982757568359e+01 1.255980014801025391e+01 9.904959678649902344e+00 1.522939968109130859e+01 2.327600002288818359e+00 6.457270145416259766e+00 7.828629970550537109e+00 3.138420104980468750e+00 5.319699764251708984e+00 6.791250228881835938e+00 6.168320178985595703e+00 6.398190021514892578e+00 2.769079923629760742e+00 6.150370121002197266e+00 7.603990077972412109e+00 3.727780103683471680e+00 1.158300018310546875e+01 3.557929992675781250e+00 1.167290019989013672e+01 1.150199985504150391e+01 2.281689882278442383e+00 1.257719993591308594e+01 5.663090229034423828e+00 1.163619995117187500e+01 1.064529991149902344e+01 5.728889942169189453e+00 1.252900028228759766e+01 9.344189643859863281e+00 1.245170021057128906e+01 3.120229959487915039e+00 3.725239992141723633e+00 1.178400039672851562e+01 3.918309926986694336e+00 2.599900007247924805e+00 1.026749992370605469e+01 6.221829891204833984e+00 1.004660034179687500e+01 1.181130027770996094e+01 6.302619934082031250e+00 1.047119998931884766e+01 4.540199935436248779e-01 1.522710037231445312e+01 6.588729858398437500e+00 3.460099995136260986e-01 1.388949966430664062e+01 5.771749973297119141e+00 4.666550159454345703e+00 5.584300041198730469e+00 1.440670013427734375e+01 3.551120042800903320e+00 5.575329780578613281e+00 1.542879962921142578e+01 8.177590370178222656e+00 1.125850009918212891e+01 9.743550300598144531e+00 8.306750297546386719e+00 1.238459968566894531e+01 1.087930011749267578e+01 1.448209953308105469e+01 1.292689990997314453e+01 7.065799832344055176e-01 4.614500105381011963e-01 1.321049976348876953e+01 4.092200100421905518e-01 1.168229961395263672e+01 9.108130455017089844e+00 2.151799917221069336e+00 1.305570030212402344e+01 8.607910156250000000e+00 2.684959888458251953e+00 1.140689969062805176e+00 9.027520179748535156e+00 1.476360034942626953e+01 1.514130020141601562e+01 8.900250434875488281e+00 1.454920005798339844e+01
9.593040466308593750e+00 5.565680027008056641e+00 2.854300022125244141e+00 1.447789955139160156e+01 6.789060115814208984e+00 8.358700275421142578e-01 1.076439952850341797e+01 8.128870010375976562e+00 1.922559976577758789e+00 1.188360023498535156e+01 7.422609806060791016e+00 1.209020042419433594e+01 2.804330110549926758e+00 3.692209959030151367e+00 9.966970443725585938e+00 1.555349946022033691e+00 7.166079998016357422e+00 1.542619991302490234e+01 9.273170471191406250e+00 1.216849994659423828e+01 5.055840015411376953e+00 3.779210090637207031e+00 3.079159975051879883e+00 7.460619926452636719e+00 1.338010025024414062e+01 8.525440216064453125e+00 2.135149955749511719e+00 3.006700038909912109e+00 5.439549922943115234e+00 6.368289947509765625e+00 1.554170036315917969e+01 4.294589996337890625e+00 1.165419960021972656e+01 1.486820030212402344e+01 1.551360034942626953e+01 6.588210105895996094e+00 1.477099990844726562e+01 9.736969947814941406e+00 1.548309993743896484e+01 6.944270133972167969e+00 1.457849979400634766e+01 4.102270126342773438e+00 6.667590141296386719e+00 3.575170040130615234e+00 1.190100002288818359e+01 1.200839996337890625e+01 1.067240047454833984e+01 1.177429962158203125e+01 1.018270015716552734e+01 5.401740074157714844e+00 3.615099906921386719e+00 9.352399826049804688e+00 4.655389785766601562e+00 2.558579921722412109e+00 1.379459953308105469e+01 6.148009777069091797e+00 5.325099825859069824e-01 1.403110027313232422e+01 7.640379905700683594e+00 1.172109961509704590e+00 1.040480041503906250e+01 7.242310047149658203e+00 2.078000068664550781e+00 1.010509967803955078e+01 8.714739799499511719e+00 2.345200061798095703e+00 1.131900024414062500e+01 6.640880107879638672e+00 1.219760036468505859e+01 1.260210037231445312e+01 7.117929935455322266e+00 1.151529979705810547e+01 3.207959890365600586e+00 3.547919988632202148e+00 9.081700325012207031e+00 2.385469913482666016e+00 2.787679910659790039e+00 9.970919609069824219e+00 1.598989963531494141e+00 6.731540203094482422e+00 1.454570007324218750e+01 6.737700104713439941e-01 6.964250087738037109e+00 1.019200012087821960e-01 9.221119880676269531e+00 1.311260032653808594e+01 4.750559806823730469e+00 1.021199989318847656e+01 1.195730018615722656e+01 4.889220237731933594e+00 4.747739791870117188e+00 3.061419963836669922e+00 7.586510181427001953e+00 3.474659919738769531e+00 3.998440027236938477e+00 7.317590236663818359e+00 1.385739994049072266e+01 9.340109825134277344e+00 1.851029992103576660e+00 1.250889968872070312e+01 8.497159957885742188e+00 1.747580051422119141e+00 3.390010118484497070e+00 5.388929843902587891e+00 5.434000015258789062e+00 2.595989942550659180e+00 6.327330112457275391e+00 6.354199886322021484e+00 6.402599811553955078e-01 4.596020221710205078e+00 1.111709976196289062e+01 1.549674987792968750e+01 3.338129997253417969e+00 1.145829963684082031e+01 1.554279041290283203e+01 3.005099892616271973e-01 6.034450054168701172e+00 1.530130004882812500e+01 1.471179962158203125e+01 6.939700126647949219e+00 3.522000089287757874e-02 9.389730453491210938e+00 1.535980033874511719e+01 1.434420013427734375e+01 9.810040473937988281e+00 1.459329986572265625e+01 6.428909778594970703e+00 1.373799991607666016e+01 4.167630195617675781e+00 6.216430187225341797e+00 1.521529960632324219e+01 3.954570055007934570e+00 5.957099914550781250e+00 4.042970180511474609e+00 1.141989994049072266e+01 6.322209835052490234e+00 3.039469957351684570e+00 1.260830020904541016e+01 1.180830001831054688e+01 9.727529525756835938e+00 1.178530025482177734e+01 1.288630008697509766e+01 1.073579978942871094e+01 1.217099952697753906e+01
1.391759967803955078e+01 7.596710205078125000e+00 4.540689945220947266e+00 2.295249938964843750e+00 1.268669986724853516e+01 6.664609909057617188e+00 6.634779930114746094e+00 1.263490009307861328e+01 1.496510028839111328e+01 9.550009727478027344e+00 9.934800148010253906e+00 1.277929973602294922e+01 2.867199897766113281e+00 3.837290048599243164e+00 1.089789962768554688e+01 1.557299995422363281e+01 1.497999954223632812e+01 1.310659980773925781e+01 9.507789611816406250e+00 7.315320014953613281e+00 1.188249969482421875e+01 5.420849800109863281e+00 1.065499973297119141e+01 8.867099761962890625e+00 1.378159999847412109e+01 1.496899986267089844e+01 6.389269828796386719e+00 6.711400032043457031e+00 5.764760017395019531e+00 2.105499953031539917e-01 9.937190055847167969e+00 2.743499994277954102e+00 8.780920028686523438e+00 1.276000022888183594e+01 2.592390060424804688e+00 7.971670150756835938e+00 1.428779983520507812e+01 4.961909770965576172e+00 3.483289957046508789e+00 9.913840293884277344e+00 4.447300136089324951e-01 1.303450012207031250e+01 8.136299848556518555e-01 1.498680019378662109e+01 6.141409873962402344e+00 9.045109748840332031e+00 4.246389865875244141e+00 5.540510177612304688e+00 1.329839992523193359e+01 8.168140411376953125e+00 4.136439800262451172e+00 1.425380039215087891e+01 8.112460136413574219e+00 5.251110076904296875e+00 1.763739943504333496e+00 1.199709987640380859e+01 7.104539871215820312e+00 3.174429893493652344e+00 1.273490047454833984e+01 7.078149795532226562e+00 7.163899898529052734e+00 1.248519992828369141e+01 1.934500038623809814e-01 5.904099941253662109e+00 1.302779960632324219e+01 1.537080001831054688e+01 9.340660095214843750e+00 9.012459754943847656e+00 1.246259975433349609e+01 1.034270000457763672e+01 9.805020332336425781e+00 1.329880046844482422e+01 3.415750026702880859e+00 3.084640026092529297e+00 1.095020008087158203e+01 2.086179971694946289e+00 3.691260099411010742e+00 1.038650035858154297e+01 1.530640029907226562e+01 1.412269973754882812e+01 1.334539985656738281e+01 1.507940006256103516e+01 1.523190021514892578e+01 1.234889984130859375e+01 1.036159992218017578e+01 6.877419948577880859e+00 1.188129997253417969e+01 9.039999961853027344e+00 6.706260204315185547e+00 1.247980022430419922e+01 5.767869949340820312e+00 1.089770030975341797e+01 9.749329566955566406e+00 4.816699981689453125e+00 9.908740043640136719e+00 8.975440025329589844e+00 1.306840038299560547e+01 1.483380031585693359e+01 7.044670104980468750e+00 1.353380012512207031e+01 1.461690044403076172e+01 5.539740085601806641e+00 6.876949787139892578e+00 4.867949962615966797e+00 5.130599737167358398e-01 7.191309928894042969e+00 5.934730052947998047e+00 1.504459953308105469e+01 1.085840034484863281e+01 2.391400098800659180e+00 8.588500022888183594e+00 9.377050399780273438e+00 2.033200025558471680e+00 8.441410064697265625e+00 1.307750034332275391e+01 2.491219997406005859e+00 7.061759948730468750e+00 1.314700031280517578e+01 3.406389951705932617e+00 8.440959930419921875e+00 1.351010036468505859e+01 4.742340087890625000e+00 2.975450038909912109e+00 1.397620010375976562e+01 5.818210124969482422e+00 3.928129911422729492e+00 8.901499748229980469e+00 3.457500040531158447e-01 1.300329971313476562e+01 9.928640365600585938e+00 1.105340003967285156e+00 1.369680023193359375e+01 1.202149987220764160e+00 1.406159973144531250e+01 6.299920082092285156e+00 1.542440032958984375e+01 1.503139972686767578e+01 6.177639961242675781e+00 8.139749526977539062e+00 3.862299919128417969e+00 5.611839771270751953e+00 9.706749916076660156e+00 3.596570014953613281e+00 5.485849857330322266e+00