-2.289602813720703125e+02
-2.293495483398437500e+02
-2.292323455810546875e+02
-2.282599945068359375e+02
-2.294371337890625000e+02
-2.287155914306640625e+02
-2.300122070312500000e+02
-2.283452911376953125e+02
-2.288907775878906250e+02
-2.287091674804687500e+02
-2.293731231689453125e+02
-2.286270751953125000e+02
