-4.950577792758846241e-01 -1.267425808980146007e+00 2.346183280126644052e-02 -1.267425808980146007e+00 -3.796959661165849376e+00 4.207401301232697316e-02 2.346183280126644052e-02 4.207401301232697316e-02 -2.625122564436672690e+00
