
     Program PWSCF v.5.4.0 starts on 22Sep2019 at 18:58:25 

     This program is part of the open-source Quantum ESPRESSO suite
     for quantum simulation of materials; please cite
         "P. Giannozzi et al., J. Phys.:Condens. Matter 21 395502 (2009);
          URL http://www.quantum-espresso.org", 
     in publications or presentations arising from this work. More details at
     http://www.quantum-espresso.org/quote

           HOST :    @host@
           ARCH :    
             CC :    cc
            CPP :    cpp
            F90 :    mpif90
            F77 :    gfortran
         DFLAGS :    -D__GFORTRAN -D__STD_F95 -D__FFTW3 -D__MPI -D__PARA
      BLAS LIBS :    -lopenblas
    LAPACK LIBS :    -lopenblas
       FFT LIBS :    -lfftw3
      MASS LIBS :    

     Parallel version (MPI), running on    28 processors
     R & G space division:  proc/nbgrp/npool/nimage =      28
     Waiting for input...
     Reading input from standard input
Warning: card &IONS ignored
Warning: card / ignored
Warning: card &CELL ignored
Warning: card / ignored

     Current dimensions of program PWSCF are:
     Max number of different atomic species (ntypx) = 10
     Max number of k-points (npk) =  40000
     Max angular momentum in pseudopotentials (lmaxx) =  3

     IMPORTANT: XC functional enforced from input :
     Exchange-correlation      = PBE ( 1  4  3  4 0 0)
     Any further DFT definition will be discarded
     Please, verify this is what you really want


     gamma-point specific algorithms are used

     Subspace diagonalization in iterative solution of the eigenvalue problem:
     a serial algorithm will be used


     Parallelization info
     --------------------
     sticks:   dense  smooth     PW     G-vecs:    dense   smooth      PW
     Min         445     445    110                37558    37558    4694
     Max         448     448    112                37564    37564    4708
     Sum       12517   12517   3125              1051747  1051747  131683
     Tot        6259    6259   1563



     bravais-lattice index     =            1
     lattice parameter (alat)  =      18.8973  a.u.
     unit-cell volume          =    6748.3346 (a.u.)^3
     number of atoms/cell      =            5
     number of atomic types    =            2
     number of electrons       =         8.00
     number of Kohn-Sham states=            4
     kinetic-energy cutoff     =     110.0000  Ry
     charge density cutoff     =     440.0000  Ry
     convergence threshold     =      1.0E-06
     mixing beta               =       0.5000
     number of iterations used =            8  plain     mixing
     Exchange-correlation      = PBE ( 1  4  3  4 0 0)

     celldm(1)=  18.897261  celldm(2)=   0.000000  celldm(3)=   0.000000
     celldm(4)=   0.000000  celldm(5)=   0.000000  celldm(6)=   0.000000

     crystal axes: (cart. coord. in units of alat)
               a(1) = (   1.000000   0.000000   0.000000 )  
               a(2) = (   0.000000   1.000000   0.000000 )  
               a(3) = (   0.000000   0.000000   1.000000 )  

     reciprocal axes: (cart. coord. in units 2 pi/alat)
               b(1) = (  1.000000  0.000000  0.000000 )  
               b(2) = (  0.000000  1.000000  0.000000 )  
               b(3) = (  0.000000  0.000000  1.000000 )  


     PseudoPot. # 1 for  H read from file:
     ../pseudo/H.tm.pbe.UPF
     MD5 check sum: 4b614d66af87240b7a5107bfa527a767
     Pseudo is Norm-conserving, Zval =  1.0
     Generated using "atomic" code by A. Dal Corso  v.5.2.0
     Using radial grid of  929 points,  0 beta functions with: 

     PseudoPot. # 2 for  C read from file:
     ../pseudo/C.tm.pbe.UPF
     MD5 check sum: a4f27fcb9b24331b00ace8e732a7e062
     Pseudo is Norm-conserving, Zval =  4.0
     Generated using "atomic" code by A. Dal Corso  v.5.2.0
     Using radial grid of 1073 points,  1 beta functions with: 
                l(1) =   1

     atomic species   valence    mass     pseudopotential
        H              1.00     1.00000      H( 1.00)
        C              4.00     1.00000      C( 1.00)

     No symmetry found



   Cartesian axes

     site n.     atom                  positions (alat units)
         1           H   tau(   1) = (   0.5492240   0.4138820   0.3678040  )
         2           H   tau(   2) = (   0.4049640   0.4924960   0.4521610  )
         3           H   tau(   3) = (   0.5713140   0.5769260   0.4527470  )
         4           H   tau(   4) = (   0.5434490   0.4218660   0.5479080  )
         5           C   tau(   5) = (   0.5155130   0.4783400   0.4536460  )

     number of k points=     1
                       cart. coord. in units 2pi/alat
        k(    1) = (   0.0000000   0.0000000   0.0000000), wk =   2.0000000

     Dense  grid:   525874 G-vectors     FFT dimensions: ( 128, 128, 128)

     Largest allocated arrays     est. size (Mb)     dimensions
        Kohn-Sham Wavefunctions         0.14 Mb     (    2354,    4)
        NL pseudopotentials             0.11 Mb     (    2354,    3)
        Each V/rho on FFT grid          1.25 Mb     (   81920)
        Each G-vector array             0.14 Mb     (   18782)
        G-vector shells                 0.02 Mb     (    2785)
     Largest temporary arrays     est. size (Mb)     dimensions
        Auxiliary wavefunctions         0.29 Mb     (    2354,   16)
        Each subspace H/S matrix        0.00 Mb     (      16,   16)
        Each <psi_i|beta_j> matrix      0.00 Mb     (       3,    4)
        Arrays for rho mixing          10.00 Mb     (   81920,    8)

     Initial potential from superposition of free atoms
     Check: negative starting charge=   -0.000370

     starting charge    7.99992, renormalised to    8.00000

     negative rho (up, down):  3.702E-04 0.000E+00
     Starting wfc are    8 randomized atomic wfcs

     total cpu time spent up to now is        2.9 secs

     per-process dynamical memory:   430.8 Mb

     Self-consistent Calculation

     iteration #  1     ecut=   110.00 Ry     beta=0.50
     Davidson diagonalization with overlap
     ethr =  1.00E-02,  avg # of iterations =  2.0

     negative rho (up, down):  1.755E-04 0.000E+00

     total cpu time spent up to now is        3.3 secs

     total energy              =     -16.02613095 Ry
     Harris-Foulkes estimate   =     -16.37724348 Ry
     estimated scf accuracy    <       0.62574493 Ry

     iteration #  2     ecut=   110.00 Ry     beta=0.50
     Davidson diagonalization with overlap
     ethr =  7.82E-03,  avg # of iterations =  2.0

     negative rho (up, down):  9.356E-05 0.000E+00

     total cpu time spent up to now is        3.9 secs

     total energy              =     -16.14856449 Ry
     Harris-Foulkes estimate   =     -16.16909875 Ry
     estimated scf accuracy    <       0.05250422 Ry

     iteration #  3     ecut=   110.00 Ry     beta=0.50
     Davidson diagonalization with overlap
     ethr =  6.56E-04,  avg # of iterations =  1.0

     negative rho (up, down):  6.317E-06 0.000E+00

     total cpu time spent up to now is        4.3 secs

     total energy              =     -16.14745012 Ry
     Harris-Foulkes estimate   =     -16.15297306 Ry
     estimated scf accuracy    <       0.01164771 Ry

     iteration #  4     ecut=   110.00 Ry     beta=0.50
     Davidson diagonalization with overlap
     ethr =  1.46E-04,  avg # of iterations =  3.0

     negative rho (up, down):  3.764E-06 0.000E+00

     total cpu time spent up to now is        4.9 secs

     total energy              =     -16.14950098 Ry
     Harris-Foulkes estimate   =     -16.15239908 Ry
     estimated scf accuracy    <       0.00703336 Ry

     iteration #  5     ecut=   110.00 Ry     beta=0.50
     Davidson diagonalization with overlap
     ethr =  8.79E-05,  avg # of iterations =  2.0

     negative rho (up, down):  1.265E-06 0.000E+00

     total cpu time spent up to now is        5.3 secs

     total energy              =     -16.15011573 Ry
     Harris-Foulkes estimate   =     -16.15019347 Ry
     estimated scf accuracy    <       0.00024252 Ry

     iteration #  6     ecut=   110.00 Ry     beta=0.50
     Davidson diagonalization with overlap
     ethr =  3.03E-06,  avg # of iterations =  2.0

     negative rho (up, down):  1.635E-07 0.000E+00

     total cpu time spent up to now is        5.7 secs

     total energy              =     -16.15015346 Ry
     Harris-Foulkes estimate   =     -16.15016459 Ry
     estimated scf accuracy    <       0.00003514 Ry

     iteration #  7     ecut=   110.00 Ry     beta=0.50
     Davidson diagonalization with overlap
     ethr =  4.39E-07,  avg # of iterations =  3.0

     total cpu time spent up to now is        6.2 secs

     total energy              =     -16.15016062 Ry
     Harris-Foulkes estimate   =     -16.15016185 Ry
     estimated scf accuracy    <       0.00000343 Ry

     iteration #  8     ecut=   110.00 Ry     beta=0.50
     Davidson diagonalization with overlap
     ethr =  4.29E-08,  avg # of iterations =  2.0

     total cpu time spent up to now is        6.7 secs

     total energy              =     -16.15016054 Ry
     Harris-Foulkes estimate   =     -16.15016122 Ry
     estimated scf accuracy    <       0.00000140 Ry

     iteration #  9     ecut=   110.00 Ry     beta=0.50
     Davidson diagonalization with overlap
     ethr =  1.75E-08,  avg # of iterations =  2.0

     total cpu time spent up to now is        7.1 secs

     End of self-consistent calculation

          k = 0.0000 0.0000 0.0000 ( 65842 PWs)   bands (ev):

   -16.6066  -9.2845  -9.1682  -8.9558

     highest occupied level (ev):    -8.9558

!    total energy              =     -16.15016078 Ry
     Harris-Foulkes estimate   =     -16.15016078 Ry
     estimated scf accuracy    <       0.00000004 Ry

     The total energy is the sum of the following terms:

     one-electron contribution =     -39.34053636 Ry
     hartree contribution      =      20.48644570 Ry
     xc contribution           =      -6.26187143 Ry
     ewald contribution        =       8.96580132 Ry

     convergence has been achieved in   9 iterations

     Forces acting on atoms (Ry/au):

     atom    1 type  1   force =    -0.01368263    0.02419492    0.01989307
     atom    2 type  1   force =     0.02480315    0.00085340   -0.00357704
     atom    3 type  1   force =    -0.02509143   -0.03569406   -0.00201362
     atom    4 type  1   force =    -0.01110199    0.02347782   -0.03009482
     atom    5 type  2   force =     0.02507290   -0.01283207    0.01579241

     Total force =     0.079546     Total SCF correction =     0.000219


     entering subroutine stress ...

          total   stress  (Ry/bohr**3)                   (kbar)     P=   -2.44
  -0.00001555  -0.00000172   0.00000031         -2.29     -0.25      0.05
  -0.00000172  -0.00001970   0.00000047         -0.25     -2.90      0.07
   0.00000031   0.00000047  -0.00001450          0.05      0.07     -2.13


     init_run     :      2.53s CPU      2.54s WALL (       1 calls)
     electrons    :      4.14s CPU      4.21s WALL (       1 calls)
     forces       :      0.91s CPU      0.91s WALL (       1 calls)
     stress       :      1.11s CPU      1.12s WALL (       1 calls)

     Called by init_run:
     wfcinit      :      0.20s CPU      0.20s WALL (       1 calls)
     potinit      :      0.94s CPU      0.94s WALL (       1 calls)

     Called by electrons:
     c_bands      :      1.57s CPU      1.62s WALL (       9 calls)
     sum_band     :      0.49s CPU      0.50s WALL (       9 calls)
     v_of_rho     :      1.99s CPU      2.00s WALL (      10 calls)
     mix_rho      :      0.26s CPU      0.26s WALL (       9 calls)

     Called by c_bands:
     init_us_2    :      0.04s CPU      0.05s WALL (      19 calls)
     regterg      :      1.54s CPU      1.59s WALL (       9 calls)

     Called by sum_band:

     Called by *egterg:
     h_psi        :      1.67s CPU      1.72s WALL (      29 calls)
     g_psi        :      0.01s CPU      0.01s WALL (      19 calls)
     rdiaghg      :      0.00s CPU      0.00s WALL (      28 calls)

     Called by h_psi:
     add_vuspsi   :      0.00s CPU      0.00s WALL (      29 calls)

     General routines
     calbec       :      0.47s CPU      0.48s WALL (      34 calls)
     fft          :      1.93s CPU      1.96s WALL (     117 calls)
     fftw         :      1.21s CPU      1.26s WALL (     132 calls)

     Parallel routines
     fft_scatter  :      1.29s CPU      1.33s WALL (     249 calls)

     PWSCF        :     9.04s CPU         9.17s WALL


   This run was terminated on:  18:58:34  22Sep2019            

=------------------------------------------------------------------------------=
   JOB DONE.
=------------------------------------------------------------------------------=
