    6    6    1    1
  0.5000000E+03  0.3000000E-08  0.1000000E-08  0.1000000E-08  0.5000000E-15
  1.000000000000000E-004
  CAR 
 unknown system                          
     16      2     12
 
  0.0000000E+00  0.2500000E+00  0.2500000E+00  0.5000000E+00
    1      -25.776771   1.000000
    2      -23.632633   1.000000
    3      -13.454325   1.000000
    4      -11.828693   1.000000
    5      -10.289573   1.000000
    6       -8.537068   1.000000
    7       -7.673045   1.000000
    8       -6.107531   1.000000
    9       -1.562278   0.000000
   10       -0.116083   0.000000
   11       -0.014104   0.000000
   12        0.170690   0.000000
 
  0.0000000E+00 -0.2500000E+00  0.2500000E+00  0.5000000E+00
    1      -25.776771   1.000000
    2      -23.632633   1.000000
    3      -13.454325   1.000000
    4      -11.828693   1.000000
    5      -10.289573   1.000000
    6       -8.537068   1.000000
    7       -7.673045   1.000000
    8       -6.107531   1.000000
    9       -1.562277   0.000000
   10       -0.116814   0.000000
   11       -0.012665   0.000000
   12        0.170081   0.000000
