LAMMPS data file via write_data, version 29 Sep 2021, timestep = 10000

432 atoms
2 atom types

0.2283028211393372 16.27169717886079 xlo xhi
0.22968647460079872 16.37031352539926 ylo yhi
0.2283028211393372 16.27169717886079 zlo zhi

Masses

1 15.999
2 1.00784

Atoms # atomic

368 2 1.606663435763712 1.5691916866265854 3.7166791271012345 0 0 0
129 2 1.2426075828249623 4.32440922585612 1.8542624276908144 0 0 1
52 1 0.7916168782512524 3.2932713418903066 3.1444466159093447 1 0 1
54 2 16.191559282351392 2.8707569190589384 2.5031582241152894 0 0 1
383 2 3.692210183414925 0.45690137819636584 15.900896181506202 0 1 0
42 2 5.639687238961849 0.8041347019425141 4.2140013316939555 0 1 0
301 1 4.286056416258293 3.059833805058252 4.826707066422668 0 0 0
303 2 3.5611881626121407 2.5458880326310855 5.226611884362847 0 0 0
41 2 5.037979118915972 1.7913907711927568 3.214226058622763 0 1 0
360 2 4.84374984552103 2.0998049389445113 0.6319051693346778 0 0 1
358 1 5.19192803879322 1.2156727923543675 16.2701192069106 0 0 0
40 1 5.459443174823533 0.8779027390602531 3.2541454028648733 0 1 0
362 2 9.578751631215503 1.8727827319858907 1.2137960804417218 0 0 0
363 2 8.220089684755115 1.1313446712787867 1.422567250872075 0 0 0
361 1 8.636455506450725 1.997468317268936 1.4277164395369488 0 0 0
106 1 11.07271260964851 1.809043062976058 0.37581432714406243 0 0 0
155 2 8.757249614758152 2.069490874216508 3.10840581538524 0 0 0
154 1 9.024293152259832 2.254807254129926 4.033498580647189 0 0 0
156 2 9.762440110435758 2.8369170382765225 4.152890330666472 0 0 0
74 2 9.667352983274313 0.5210697557278692 4.183641236394964 0 0 0
381 2 7.41416643239017 3.2712276473329887 1.3204498856268276 0 0 1
297 2 6.30537682567763 3.195020609360475 5.142336410309056 0 0 0
295 1 7.17239517699963 3.5545779846736765 5.377559123952466 0 0 0
296 2 7.859602403995156 2.964761516339749 4.993533745720033 0 0 0
379 1 6.727348740392847 4.019645932082041 1.3069411880953938 0 0 1
359 2 5.871901152922399 0.8030034430529546 0.8042874876181236 0 0 1
95 2 12.453144571137411 2.682792859923438 0.6055328323278598 0 0 1
265 1 14.08242673450234 3.5187558378284503 3.913090624040414 0 0 0
266 2 13.522565090429726 3.150072867551646 4.60842480953845 0 0 0
53 2 16.203763257521082 3.6106333830377846 3.7770231596728285 0 0 1
267 2 13.7062591658594 3.1265294609417644 3.052585690475667 0 0 0
94 1 13.234431173148522 3.216094320971177 0.9030251941560898 0 0 1
96 2 13.38195880928282 3.910972753999344 0.28083942277391216 0 0 1
385 1 10.8457653656626 3.7193807295523165 5.428478697793128 0 0 0
387 2 11.066017539501862 4.180004628523327 4.629189512857046 0 0 0
386 2 11.5338527730449 3.058098004863077 5.612556499516723 0 0 0
130 1 12.551954339808884 1.801934301778366 5.645601938431892 0 0 0
131 2 12.462544352698501 0.9287766440359198 5.220735813608831 0 0 0
108 2 11.176971870990965 0.8730023873941647 16.195295158839663 0 0 -1
3 2 1.481352760731804 7.575305830043054 3.322833264314275 0 0 0
50 2 2.2229618824168558 8.455833612241424 1.25564325968675 0 0 0
49 1 2.034537834698565 8.596655019664267 2.1633281465711187 0 0 0
85 1 3.7207360090548907 5.378310683740433 3.4507917135012205 0 0 0
86 2 2.741974384806825 5.6938557431322705 3.4927672035368844 0 0 0
2 2 0.41846632087936686 6.578106073800989 3.680908801386183 0 0 0
1 1 1.3294705487164291 6.770209390391535 3.9040111152262327 0 0 0
302 2 3.9208832147052446 3.8789712425336473 4.387252088977418 0 0 0
339 2 4.3026222055908026 7.105877334715358 2.898748414561731 0 0 0
87 2 4.041777499968983 5.7508685360967995 4.266176082277588 0 0 0
63 2 1.1194668969241484 7.426375746703699 5.562087320927672 1 0 0
127 1 1.5419165024407904 4.772785629536006 0.99961784698225 0 0 1
38 2 3.2492263064927625 3.827518315744848 1.3152828601977402 0 0 1
37 1 4.071398884205955 3.3250543573181424 1.1617379982483174 0 0 1
128 2 0.9199800301797728 5.511040409351426 1.0109151993610364 0 0 1
39 2 4.796380597417998 3.96177069450305 1.4121681248149178 0 0 1
380 2 7.1982257459038905 4.781977007357531 1.69564953550648 0 0 1
244 1 9.260692925968046 5.074418351972313 1.9384803966129072 0 0 0
245 2 9.390166897386344 5.327664218941446 1.0064300004169358 0 0 0
246 2 8.992690789084868 5.934292869942386 2.328543307550111 0 0 0
105 2 8.323922767768412 6.870090371296596 3.7820057610671287 0 0 0
177 2 7.897038362302003 5.3203580497772265 5.272038540456077 0 0 0
429 2 11.686391440458518 6.232056224297155 3.5280951765355857 0 0 0
103 1 8.543582172514078 7.414158177274063 3.013241261461214 0 0 0
428 2 10.802101248772216 5.184966287091258 2.8218030178805145 0 0 0
427 1 11.55851362946393 5.281825083605073 3.4905903672002867 0 0 0
256 1 14.651428985168968 6.008315150789429 3.721763066208617 0 0 0
257 2 14.135641300946144 5.135612485112692 3.9669690680967413 0 0 0
170 2 14.869180332585055 6.08687438804099 1.9197117030183761 -1 0 1
258 2 14.043282429791445 6.795877087941422 3.6880220290505257 0 0 0
169 1 15.338204309723736 6.333313748452768 1.0604959949286057 -1 0 1
171 2 15.111609081554619 7.250282491426391 0.8405904756890101 -1 0 1
312 2 12.543445088781565 8.204417710403963 1.2088900644262708 0 0 0
310 1 12.28822363853836 8.391792136241568 0.2692183580934036 0 0 0
84 2 15.219173907832818 5.424580988693933 5.623526173035689 0 1 0
311 2 11.536916951578249 8.888006003928293 0.44543921323760927 0 0 0
51 2 2.9067592573793672 8.608306409067689 2.5265331542273453 0 0 0
119 2 0.8626674064048858 9.835995775536201 1.9345459703095738 0 0 0
432 2 0.6598037137109021 9.641168968258038 5.33330028645181 0 0 0
118 1 16.255680822818643 10.511687718856802 1.684372013336738 -1 0 0
430 1 0.28396393458304203 10.485957882527376 4.864245201552189 0 0 0
30 2 2.9111848034756793 13.010912509052607 0.9325921712521907 0 0 1
28 1 3.8399121472085573 12.969117477413088 1.3095819623874232 0 0 1
29 2 3.8922702158004516 13.717876545920994 2.008648167048615 0 0 1
337 1 4.562987240516315 8.03519211042843 3.0900358462032997 0 0 0
338 2 5.242663476430545 8.282888928388266 2.447507245232233 0 0 0
206 2 5.832617965377162 8.868550131998493 4.78276860902963 0 0 0
104 2 7.7701808456125585 7.913169258104198 2.7842263088972605 0 0 0
203 2 6.557841860505242 10.120825297617287 1.4665489427859355 0 0 1
202 1 6.593900291330042 9.150116911447375 1.6288622836309472 0 0 1
371 2 9.53874418428148 9.18622899414614 2.3752046184502356 0 0 0
204 2 7.079099269290818 8.827084188242727 0.8508492272744639 0 0 1
419 2 6.791381597220778 10.905720324519885 4.629494665626388 0 0 0
150 2 9.366454622509456 10.68841280910677 0.32329690228732844 0 0 0
420 2 6.5927442156323925 11.78802314710856 3.3242159125276216 0 0 0
391 1 6.237132422906038 11.837998808916762 1.461768647771718 0 0 0
418 1 6.981280800708024 11.809879660992864 4.2463575926709325 0 0 0
393 2 6.698584560290233 12.490039928563837 0.9049431515830189 0 0 0
392 2 5.29257451274376 12.166353030378705 1.360873322889639 0 0 0
271 1 9.737810655293227 11.679948058577814 5.333431345488211 0 0 0
272 2 8.848133424353048 11.732409228911711 5.008164386214158 0 0 0
205 1 6.549116376309473 9.484387525594418 5.101867398190521 0 0 0
148 1 9.158554221221202 10.85835366784359 15.434714580071933 0 0 -1
120 2 15.714690676461265 10.647974311251238 2.4777125746810675 -1 0 0
225 2 10.754886628643591 11.466869592612765 3.9453218533367296 0 0 0
357 2 15.331563663039153 9.507201186244917 0.5324770813120707 -1 0 1
370 1 9.888368495542935 9.696123872634605 1.6450672734410774 0 0 0
372 2 10.482666199154536 10.410659077290521 2.1405097813275145 0 0 0
356 2 13.976003438786082 9.004359713756356 15.982020519424823 -1 0 0
110 2 12.97279635415838 11.596454738965594 3.477491687681454 0 0 0
121 1 13.156159558263065 8.351150423960249 3.4083495321837534 0 0 0
122 2 13.490756577559488 9.231633960435547 3.203383743592888 0 0 0
111 2 14.307019140241628 11.485582027292248 4.350284526845359 0 0 0
109 1 13.936831347745718 11.373080906625297 3.471045420421577 0 0 0
123 2 12.720358544355056 8.38483236555408 4.369049204340549 0 0 0
355 1 14.925995692860466 8.90592715203214 15.924074097877014 -1 0 0
305 2 0.8660990521611723 13.591274852288427 0.8869927452576855 0 0 1
367 1 1.6116081388695713 0.7995292434052889 4.260364966209545 0 0 0
431 2 1.0686400338168485 10.871965218818854 4.437624317028173 0 0 0
353 2 3.1214761573975323 11.86839706390519 4.2143833278806255 0 0 0
352 1 2.4968778986329663 11.394642859359324 3.7026381091842335 0 0 0
151 1 3.488760219375309 15.45689700355799 2.6304798776599316 0 -1 0
152 2 3.266004341184681 15.614804257067963 1.7299281642422977 0 -1 0
354 2 2.851420421201804 11.571364682006152 2.8256892831479865 0 0 0
369 2 1.9125832602594677 16.268754835781383 3.5845862170978147 0 -1 0
382 1 2.8508544538203964 16.079613516294785 15.780923250727122 0 0 0
153 2 4.174287142354748 16.124773139505038 2.8698371988360076 0 -1 0
187 1 7.4057288678505415 15.6690177057423 1.348516364093297 0 -1 0
188 2 7.5147458236407525 15.268880820935943 2.218049584753273 0 -1 0
189 2 7.662392527257885 14.93777031108721 0.7547056045476711 0 -1 0
136 1 11.11043561767164 14.169210985073715 2.1697684462888924 0 -1 0
137 2 11.119199866933739 14.43768606968957 1.2719894602500017 0 -1 0
138 2 10.491048287304562 14.812865865379395 2.5931215525663434 0 -1 0
350 2 7.363463819482689 13.568036530380418 4.308965582849198 0 0 0
349 1 7.550151205895035 14.512905992189332 4.1315684573653595 0 0 0
75 2 8.86753966020194 15.354668971619633 4.223253658972435 0 -1 0
73 1 9.778416668465068 15.708699219365888 4.151789398221858 0 -1 0
223 1 11.246278773080403 11.542321295352062 3.0707910067327275 0 0 0
263 2 14.886661971964708 1.9135569581306788 0.8503640518761089 0 1 1
60 2 15.945166733555263 16.115545962019084 3.449676018251716 -1 0 0
59 2 15.178640233798921 15.25192921047036 2.3539523133690032 -1 0 0
224 2 10.955118339384203 12.363562135079619 2.651206851036059 0 0 0
426 2 12.417359095008779 14.89328586580219 3.598664720195057 0 -1 0
285 2 14.65497875646557 13.0174896275506 2.112591975247394 -1 0 0
425 2 13.68393382366639 15.66258827389245 3.960258840986594 0 -1 0
58 1 15.135381998236582 16.080421209492638 2.8629126059816077 -1 0 0
424 1 12.899383552436708 15.281397093159772 4.404060345268799 0 -1 0
284 2 14.695579881298505 14.034701126527585 0.8008854202456935 -1 0 0
283 1 15.027723732582016 13.823952486504828 1.6600177329474977 -1 0 0
407 2 3.0046719051200257 2.4554890945568224 7.507508549343466 0 0 0
406 1 2.2933094550969484 2.422594136466085 6.862392166394462 0 0 0
114 2 5.370921238240255 15.758489585589533 6.507763514401391 0 -1 0
43 1 0.7990918887355526 15.502048390979944 6.563676757341757 0 0 0
4 1 3.9140889837576194 1.562367853942831 9.456787612809114 0 0 0
6 2 3.5715544030343453 0.7332086167931784 9.00276970179483 0 0 0
277 1 3.3601440514031458 4.117850203720863 10.696646957746431 0 0 0
279 2 3.2752502260554293 3.2832238527757256 10.1659945199724 0 0 0
378 2 16.229055441630944 0.4496345768122978 8.642396787310268 0 1 0
5 2 4.8544896007557305 1.392228556448534 9.487706288215506 0 0 0
112 1 6.096622834213198 16.293127924710404 6.020228371485286 0 -1 0
113 2 6.8988999070910095 16.18412856073988 6.57224348008476 0 -1 0
174 2 7.0607544062292105 3.3754468573564833 7.17321407112738 0 0 0
172 1 7.213784195036502 3.345615783854863 8.142810152814143 0 0 0
173 2 8.210336471660051 3.2882221685783772 8.156755200829778 0 0 0
179 2 10.105383884662203 2.9896333648960876 6.965660747339604 0 0 0
32 2 6.691888178586474 1.8251031305137706 8.931252810322764 0 1 0
31 1 6.566490422782673 1.0970157267816254 9.578955442166295 0 1 0
178 1 9.920700087600924 2.604882532101019 7.836697115898873 0 0 0
416 2 8.486687124674882 1.3154470323444023 11.761380163574959 0 0 0
288 2 10.01942372088719 0.2960341768515834 10.198779558420382 0 1 0
33 2 7.306699384635997 0.49451583483353545 9.402142464352073 0 1 0
102 2 11.51762797010199 2.104959960711853 10.493167111994422 0 0 0
411 2 6.750071238588399 3.533509167957809 11.123981227656778 0 0 0
415 1 8.66028560554787 0.45282665471380246 11.31965221352743 0 0 0
377 2 0.9867590314884417 1.534990778943555 7.824074106476816 1 1 0
132 2 13.052760150476274 1.6529940099887779 6.441701394863832 0 0 0
160 1 13.017598875421958 1.4092274113323708 8.178578915005307 0 1 0
161 2 13.771344798875766 1.2283346277300415 8.757863560614865 0 1 0
101 2 10.944684368670861 2.9573403636932647 9.187006728017899 0 0 0
180 2 9.69475293510635 1.6927493264008209 7.695649178368858 0 0 0
376 1 0.2795222534339783 1.419281531087719 8.483483922184677 1 1 0
318 2 15.604708242476608 2.274989836481101 9.550882433208853 0 1 0
228 2 14.443371745064317 0.9783288596475667 10.826445515396427 0 1 0
89 2 13.57582358771123 3.771903652822819 8.776642556005102 0 0 0
286 1 10.748473815572432 16.29988839160101 9.549482985204083 0 0 0
162 2 12.255336022759 1.0275148714259337 8.639656449128626 0 1 0
100 1 11.298236138205 3.027319998069745 10.1374198499561 0 0 0
328 1 2.2191505655183996 5.1940030789241565 6.753616639172619 0 0 0
329 2 3.1722799683845104 5.379143896845329 6.5123178915860755 0 0 0
330 2 1.9615698531196575 5.514971575999707 7.642325578193953 0 0 0
408 2 1.9642160067855803 3.3378526014940393 6.810504133629873 0 0 0
135 2 4.335925274310122 6.953055311156591 6.624417272625258 0 0 0
276 2 3.274460241970708 7.4076972648425485 8.428874467397744 0 0 0
16 1 1.8937062051539668 6.2425405787598685 9.368145100582163 1 0 0
17 2 0.9136804665331423 6.131983998236752 9.509270035240766 1 0 0
18 2 2.3728215974480444 5.5339980762449015 9.832789039607167 1 0 0
274 1 3.9541492562290905 7.916022141750572 7.984002182010674 0 0 0
275 2 4.718199815799903 8.121057195933144 8.603357290376591 0 0 0
133 1 4.573994972804223 6.163785711286609 6.100719685014235 0 0 0
390 2 5.925152189511287 4.5851811890180425 8.40419950232143 0 0 0
389 2 4.879452447416912 4.792554634265757 9.417390551317201 0 0 0
83 2 0.32058863262787796 4.947542256255912 6.4113889336452115 1 1 0
175 1 8.326080902004621 6.216832249662009 5.215975596122656 0 0 0
222 2 9.405216031703645 3.3331105540163306 10.479307647162178 0 0 0
220 1 8.702141383631417 3.68988155388687 11.036304509641367 0 0 0
221 2 8.715452800335367 4.665331967886852 10.893357464381321 0 0 0
176 2 8.357016993741057 6.679741787637248 6.103887334786329 0 0 0
134 2 5.2271917107007155 5.838379239674987 6.7386611368581475 0 0 0
27 2 7.268629379811647 8.087115416272962 7.77781610105645 0 0 0
21 2 11.181174424883856 5.485926666515282 6.676154681383525 0 0 0
388 1 5.188932489511351 5.186028952279472 8.59891691927559 0 0 0
238 1 6.249420622815722 7.962483837326527 9.18480369809002 0 0 0
146 2 10.563148235711225 6.985867686791813 8.573697450986828 0 0 0
145 1 10.358726949964995 7.265566350552248 9.468893282343549 0 0 0
240 2 6.032711916607266 7.185945561460396 9.661699054368569 0 0 0
82 1 15.427921972102647 4.702817097348693 6.240025894612578 0 1 0
347 2 11.072826523488093 6.017568894416754 10.79350771682263 0 0 0
19 1 11.720600160040261 6.0681461549646265 7.227116995297524 0 0 0
90 2 14.394776729386018 4.577052196261505 7.700395086768523 0 0 0
20 2 12.323364895814228 5.658522974246455 7.874945755723479 0 0 0
8 2 12.271048853287894 7.506856772034197 6.4170344779377935 -1 0 0
88 1 13.785013787910104 4.672578011171602 8.46487020394537 0 0 0
346 1 11.668757008280329 5.6159408265887425 11.433153209638924 0 0 0
184 1 15.370533311011348 6.379151938632594 10.347064125252112 0 0 0
185 2 14.748593825909579 5.765210463293511 9.936639030807623 0 0 0
243 2 14.952614944697777 8.254675310804693 10.238816965800055 0 0 0
348 2 12.19227615738293 5.006976041005937 10.969450520436869 0 0 0
61 1 1.1871608053325242 8.286324331005058 6.07830298713931 1 0 0
56 2 2.8649687704097135 9.563944686387366 6.177889609928679 0 0 0
55 1 3.134447471446931 10.283009280782542 6.72361894450739 0 0 0
219 2 4.180426455778449 11.367509100328366 5.980296527655781 0 0 0
217 1 4.466779702631952 12.246002722285443 5.578683888291861 0 0 0
218 2 5.428668835340249 12.078732675134543 5.357052344065373 0 0 0
57 2 3.697517382063652 9.754539363593597 7.279726696629514 0 0 0
183 2 2.2443058151905415 11.442204266909586 7.797114109280212 1 0 0
181 1 1.7678228724582126 11.934054115281098 8.476800505426876 1 0 0
182 2 1.4156997192275718 11.237582069980508 9.065588254915168 1 0 0
364 1 0.5016608525139836 10.631364950531994 10.645928490659713 1 0 0
345 2 11.31234179257133 9.300407354139729 7.231267554583564 0 0 0
147 2 11.029975502899774 7.9549390542874825 9.73176129064965 0 0 0
239 2 6.25984324274803 8.666740998993639 9.87279059714884 0 0 0
25 1 7.947987953822088 8.168871892796613 7.0540695216609155 0 0 0
207 2 6.981100064337744 9.100473466993167 5.829557140869711 0 0 0
26 2 8.679857464664472 8.732136771824416 7.335783941267156 0 0 0
343 1 10.750011959379615 10.024941052403983 7.527036573409513 0 0 0
344 2 10.442120654179226 10.52383873907402 6.734149815398054 0 0 0
394 1 11.019501105833239 11.511795584679328 9.689527570347177 0 0 0
396 2 10.85128441639127 10.970392750736575 8.895688036747666 0 0 0
22 1 7.249645398870731 9.829391919172902 10.825082288007327 0 0 0
23 2 6.4475557106190635 10.261441489667044 11.22290329761397 0 0 0
24 2 7.759182480093986 10.63550310276784 10.561637104686506 0 0 0
7 1 12.609475685055493 8.205796878420303 5.893167536621783 -1 0 0
62 2 0.40776351334526073 8.294794285504087 6.631168941510429 1 0 0
402 2 0.3645023694160646 12.006115925466217 7.5194957311370265 0 0 0
9 2 13.334105492489009 8.635865747944377 6.449097996797256 -1 0 0
322 1 14.43946081465394 9.529529613035416 7.187047256431455 0 0 0
324 2 14.61964816634765 10.517924311260098 7.1295475525166685 0 0 0
400 1 15.559106622774166 12.000040083764912 7.005959409971335 -1 0 0
323 2 14.553976604622958 9.2373338392844 8.116624245378823 0 0 0
261 2 11.812434431511521 9.970649396841704 10.155387220681744 0 0 0
259 1 12.156262115097512 9.06683029535308 10.32460074108361 0 0 0
241 1 14.65691326717491 9.06676460457659 9.846199601306045 0 0 0
242 2 13.796475358007791 9.262032600083042 10.332472807879238 0 0 0
401 2 15.822529955145711 11.614283288370642 6.11464631579561 -1 0 0
365 2 15.777756661552413 10.048582487327321 10.339756998150918 0 0 0
44 2 0.9385427634435587 15.992398984061847 5.729730789874312 0 0 0
47 2 3.2537384315821254 12.73821083845018 9.801161163418925 0 0 0
165 2 4.773126177628615 13.694534548262027 6.658760608042019 0 0 0
398 2 1.8016429416515571 15.500876113384857 7.695488404661998 1 0 0
397 1 2.35951582505267 15.398010033159292 8.515190182812827 1 0 0
399 2 1.825218438765089 14.810122161729687 9.037554375405577 1 0 0
164 2 4.161351463996112 14.652491889731666 7.897926708482107 0 0 0
163 1 4.940670700019864 14.348586297960942 7.380456455113643 0 0 0
79 1 15.32616157661061 14.871397667918238 9.345153092023468 0 0 0
143 2 9.460124451952458 11.949200728227447 9.980885682171532 0 0 0
69 2 7.851792737564787 14.480554736152614 8.51652614247614 0 0 0
351 2 6.9837984168801155 14.982033402171751 4.75800386894325 0 0 0
67 1 7.105529837373687 14.260812599503247 9.110488903270783 0 0 0
116 2 9.608031053806272 14.823407294646465 7.09073895739422 0 0 0
117 2 9.677717988934669 15.885512548703902 8.138787241517326 0 0 0
115 1 9.018412362089423 15.473467930011374 7.565191483417072 0 0 0
273 2 10.0209813172594 12.623079348480687 5.553957475087732 0 0 0
142 1 8.63431416776684 12.252515567358644 10.51913816201789 0 0 0
68 2 6.29742523501795 14.191006650349395 8.535011095203279 0 0 0
144 2 8.118107610097242 12.961673394765995 10.045968721466943 0 0 0
195 2 10.553355018689969 14.661986037523654 5.33764121479442 0 0 0
395 2 11.700810391225529 12.27294356080624 9.595635000160183 0 0 0
287 2 11.369870025959342 15.563750514922017 9.871053575463579 0 0 0
45 2 16.04362304291147 14.919195468676511 6.579647326954514 -1 0 0
14 2 14.562772704008122 13.294603453219125 6.717193600684582 0 0 0
13 1 14.050620576611312 14.112778699921606 6.679140785596595 0 0 0
193 1 10.800037062956184 14.12818371365217 6.075224740496693 0 0 0
194 2 11.756309700247373 14.268319721477663 6.067448746595865 0 0 0
15 2 13.686257805815531 14.19997451206467 5.82694130263508 0 0 0
308 2 11.787534519976518 13.569716031218446 10.937348104218936 0 0 0
307 1 12.353981312976632 13.741311744342358 10.113787522136052 0 0 0
309 2 13.118972306240043 14.26919424649926 10.470196783069898 0 0 0
81 2 14.792655408920176 14.513267593901038 8.606736768885849 0 0 0
80 2 14.754943849568827 15.321892320810678 10.022968606464753 0 0 0
226 1 13.88544705356367 16.32658536028177 10.970643486617433 0 0 0
197 2 15.823900626399492 13.476110219462042 10.657443240681625 0 0 0
278 2 2.596821796681229 4.060444513323827 11.306037810470913 0 0 0
313 1 1.3324581488923752 3.1496405808747405 12.144593291051086 1 1 0
314 2 1.8690269281210394 2.3392541109561917 12.214798988547434 1 1 0
215 2 3.996690156118061 1.128369328896143 12.379579420599386 0 1 0
249 2 5.2682847630073795 1.5236124983054338 14.621452856444847 0 0 0
247 1 5.410144865534999 1.4283603039489 13.603193447345184 0 0 0
248 2 5.388036340463791 2.357199666891792 13.293020296511703 0 0 0
315 2 1.2613694241227513 3.463376593829779 13.066517548346106 1 1 0
410 2 5.2686701390774715 3.486746719263753 11.154209421265065 0 0 0
409 1 5.999810283303144 3.699382086453736 11.706210266088162 0 0 0
300 2 8.840477135937908 3.8844218033611777 12.629003112339483 0 0 0
298 1 8.82023293267662 4.004140386821066 13.612161991810856 0 0 0
417 2 8.977007849069658 15.966882034657287 11.96816072390589 0 -1 0
299 2 8.736732445042499 3.1141512050556703 13.981891225946844 0 0 0
199 1 8.121131690568234 1.3378840275056474 14.268748755104484 0 0 0
201 2 7.284861351953802 1.176981584815299 13.846506396214108 0 0 0
107 2 11.002445225385545 2.3444704954914206 15.613277935655638 0 0 -1
168 2 10.304761217427346 3.960004451666479 14.241593863652255 0 0 -1
93 2 6.367207238194362 4.410501848529341 15.54734438631559 0 0 0
92 2 6.576640028686079 4.324997112357692 13.900792646654825 0 0 0
200 2 8.513167135170814 0.48663657596197374 14.379536192296458 0 0 0
316 1 15.155604022929838 2.6229780590774716 10.366874129291956 0 1 0
166 1 11.181258919379228 3.513217964802687 14.494853423923026 0 0 -1
317 2 15.942957535024652 2.8858697684581722 10.8747994760239 0 1 0
213 2 13.587102004484601 3.2985144978611993 11.726051351770767 0 0 0
212 2 12.594937342889478 3.3951680921778364 12.839616402726156 0 0 0
211 1 13.5135866721743 3.3271772436610063 12.643804995924969 0 0 0
282 2 14.512160842261562 1.492405557531371 13.640533824634842 0 0 0
414 2 16.03351716041407 2.9394175729113465 15.462674547672277 0 0 0
167 2 11.757981525372587 4.17633737988018 14.864995896619561 0 0 -1
235 1 2.99641751089659 8.270401005247683 15.44441834651587 0 0 0
412 1 0.5414011502511421 3.566263104927923 14.903170514056152 1 0 0
413 2 1.0906108422555854 4.02323981707524 15.527879608449881 1 0 0
236 2 3.63799828085772 7.8590625202709505 14.860653882766947 0 0 0
77 2 1.6927723260046923 8.616992564701155 12.732732157153405 0 0 0
76 1 2.277634389148368 9.004781473000955 12.017283671208057 0 0 0
65 2 1.61895352475512 7.989444898142274 14.77925795530776 0 0 0
210 2 5.778697651710163 5.631220086900819 11.773606304453654 0 0 0
208 1 5.754733043856548 6.570414208332916 11.64656889614819 0 0 0
209 2 5.6706607472920805 6.962372826940526 12.520196238385596 0 0 0
254 2 8.817802211364235 6.825262563588735 10.539782051395322 0 0 0
255 2 7.485613046869968 6.489829385414615 11.28487492500947 0 0 0
91 1 6.072641538255683 4.781665811620165 14.62045295724938 0 0 0
375 2 5.423419132942181 6.257853088234229 14.47207484834793 0 0 0
373 1 5.2150573383869725 7.2371945416909735 14.261673555249892 0 0 0
374 2 6.0549792193493515 7.701865060193223 14.654674198255192 0 0 0
253 1 8.454908375442217 6.346055872619968 11.295256833349587 0 0 0
157 1 9.055419492670485 6.179441763049201 15.380043207032053 0 0 0
158 2 8.711814126051223 5.373178726729142 14.955964741237487 0 0 0
98 2 8.115345754721712 7.457479145075371 15.338677017192092 0 0 0
159 2 9.822433473383175 6.524935563339902 14.800104069443575 0 0 0
97 1 7.549833694563242 8.255683113105032 15.315800324968576 0 0 0
230 2 14.333247760707659 5.890628034670077 15.7743931463274 0 0 -1
141 2 11.53761116204414 6.310779319478132 13.14363628407613 0 0 0
186 2 15.380487042633982 6.176191081658879 11.310550132477987 0 0 0
139 1 11.364483317346046 6.815582311875829 13.98792085166111 0 0 0
231 2 14.169892533204292 5.1639201884483334 14.370694346289438 0 0 -1
140 2 12.171430701239998 6.702650799193401 14.566255329331407 0 0 0
229 1 13.67938663096967 5.449773688953857 15.185398836294667 0 0 -1
293 2 16.049560696059636 6.296824883580363 13.627260799070614 -1 0 0
292 1 15.466803521186486 5.734685833087217 13.11550373398545 -1 0 0
294 2 15.999752559260035 4.935247529339969 13.125076923778 -1 0 0
126 2 3.640197536631434 11.696315456930842 15.870031156691793 0 0 0
12 2 4.520203400305231 11.603250087581321 11.451919212549479 0 0 0
10 1 4.96458266710101 10.989067389501079 11.985418921551657 0 0 0
11 2 5.544355796677872 11.42623952673076 12.617466834759432 0 0 0
366 2 1.0944921070291356 9.975714321213891 11.021396881808935 1 0 0
237 2 3.1597451989556142 9.221234044493709 15.386317512986848 0 0 0
78 2 3.1705897447561036 9.134958579090084 12.350200409161932 0 0 0
342 2 1.9631373776258838 12.77905462451641 13.669207935167462 0 0 0
340 1 2.8212810181405397 12.637444313836987 13.248771021666741 0 0 0
341 2 2.7154464805645846 12.465930766697317 12.296006816204228 0 0 0
125 2 3.7704321773266303 11.309718345690518 14.3870386530338 0 0 0
124 1 4.000002226918799 11.018132133219972 15.247275286394927 0 0 0
64 1 0.8358288036133197 7.93661457379872 14.110307561980502 0 0 0
66 2 16.156130622561633 8.288494953438773 14.670467817758665 -1 0 0
336 2 5.942336001149789 11.123709861236817 14.980728534500061 0 0 0
291 2 8.890576659220406 7.5788292405634605 12.304286304340348 0 0 0
290 2 8.197440888516287 8.874635330571842 11.931252546030295 0 0 0
335 2 7.515854679284454 11.265157934128682 14.889850353934929 0 0 0
334 1 6.624545584716769 11.545778216158151 14.529726734038213 0 0 0
289 1 8.765086015649516 8.505707002970292 12.66287130509277 0 0 0
269 2 10.232678844842667 8.951302640987626 12.885771001891115 0 0 -1
99 2 8.013909762456976 8.851592181021891 14.682503456436642 0 0 0
149 2 9.997116439333123 11.067090502786831 15.02453250670634 0 0 -1
72 2 11.490704769485866 10.70768127438343 13.497912032450254 0 0 0
260 2 11.847448767316145 9.021618090365944 11.258682179150751 0 0 0
268 1 11.23951408440767 9.227513489586624 12.898717887688564 0 0 -1
198 2 0.3971351202967486 12.173142228277374 11.350827870815207 1 0 0
270 2 11.572888583559422 8.55293018884779 13.504862792183863 0 0 -1
70 1 11.620077566447575 11.657931140488772 13.801279392190304 0 0 0
304 1 1.359565844982525 12.959396706940238 0.43033081033332055 0 0 1
306 2 0.8049753232493152 12.152345859399023 0.6467202809980043 0 0 1
251 2 14.873631486546321 11.488532728747312 13.88086492540137 -1 0 0
71 2 12.565405944935515 11.81785855838171 13.768802369581731 0 0 0
250 1 14.378344767952598 12.266977858739319 13.614998992357732 -1 0 0
384 2 2.220893810094122 0.5336278872021493 15.338533324866377 0 1 0
232 1 4.933512064864933 15.037246219425489 11.109753519962137 0 0 0
233 2 5.788873160062445 15.286438348541147 10.787161340700335 0 0 0
214 1 3.111012519932677 1.0380858013878305 11.982835770336013 0 1 0
46 1 3.5922573000658278 12.777301246238423 10.73523264598904 0 0 0
48 2 4.058739876320908 13.664599700511108 10.767765139276081 0 0 0
216 2 3.4247960002849243 1.010798593714588 11.06922599373581 0 1 0
404 2 4.137276610407664 14.151489499128935 13.815219845656452 0 0 0
405 2 4.274079571240371 15.395962800889698 14.642480235987243 0 0 0
35 2 1.808364251801157 15.934817745519412 12.433285490884558 1 0 0
403 1 4.760699148810266 14.836475273664114 14.01414944647245 0 0 0
36 2 0.6526331186669678 14.84542269519529 12.315204242778593 1 0 0
234 2 5.008669468730467 15.30296522683876 12.056781040254396 0 0 0
34 1 0.8884854500172816 15.734110839153276 12.667457256047108 1 0 0
327 2 6.935910623150738 12.931881132403232 14.990381296928602 0 0 0
326 2 6.316537049230609 14.40801752820134 14.964602033214955 0 0 0
190 1 10.484062077018116 13.4047059605836 12.1830908651409 0 0 0
192 2 10.761487452919965 12.697182643055546 12.817897523703312 0 0 0
191 2 9.715259032956691 13.0551157564887 11.724404758400427 0 0 0
422 2 8.950578576803352 14.397729737658015 14.509196553788172 0 0 0
325 1 7.048441902268323 13.88922026660812 15.353609831634486 0 0 0
421 1 9.515285252053443 14.949163010028684 13.977812746512896 0 0 0
423 2 9.911705196131617 14.389087734084708 13.25836048839316 0 0 0
320 2 10.899669835164199 15.11873573976897 15.009472836910373 0 -1 -1
262 1 15.847681913709328 1.8657365230818055 0.8052774355836576 0 1 1
227 2 13.990978450266597 16.170738078600365 11.885687549374856 0 0 0
281 2 15.71454085529249 0.48079261648062577 13.531086530167302 0 0 0
280 1 14.849504113731532 0.6602063047827642 14.0848961343551 0 0 0
264 2 15.9561447860891 0.9842040940706908 1.1169369727036527 0 1 1
319 1 11.410835564138655 15.48695343607792 15.71585838599306 0 -1 -1
196 1 16.09794979487527 13.08331359478812 11.532265849559 0 0 0
321 2 12.342268123675302 15.194729877466978 15.53528941470647 0 -1 -1
332 2 14.094027455982557 13.874517430570528 14.602833342980713 0 0 -1
331 1 13.87995531651864 14.555032080210161 15.249647933634295 0 0 -1
252 2 14.85253193909872 12.602600619138846 12.829732478827157 -1 0 0
333 2 14.310329738434149 15.353416599876876 14.935886836309432 0 0 -1

Velocities

368 8.157085774445388 8.573146041414592 31.595554952386383
129 -10.348338632438477 4.144509740908566 0.9325999535384096
52 1.5438411645803851 2.425189682314336 -1.2582057204085138
54 24.315795402776498 28.074417384264084 -33.46353981894887
383 -4.229433346692769 27.360554680383444 -12.238958393466465
42 -11.184374972211563 -4.28391537167813 25.19299417021748
301 -4.539484199935468 0.817523246039065 0.47353155780058903
303 -3.6955025007450497 -6.553781293320534 -2.643996906424503
41 28.898606169806307 -21.584106116433553 8.433783540969529
360 -24.755297008330743 -15.682108847210008 -34.07880468548684