
     Program PWSCF v.5.4.0 starts on 22Sep2019 at 19:43: 1 

     This program is part of the open-source Quantum ESPRESSO suite
     for quantum simulation of materials; please cite
         "P. Giannozzi et al., J. Phys.:Condens. Matter 21 395502 (2009);
          URL http://www.quantum-espresso.org", 
     in publications or presentations arising from this work. More details at
     http://www.quantum-espresso.org/quote

           HOST :    @host@
           ARCH :    
             CC :    cc
            CPP :    cpp
            F90 :    mpif90
            F77 :    gfortran
         DFLAGS :    -D__GFORTRAN -D__STD_F95 -D__FFTW3 -D__MPI -D__PARA
      BLAS LIBS :    -lopenblas
    LAPACK LIBS :    -lopenblas
       FFT LIBS :    -lfftw3
      MASS LIBS :    

     Parallel version (MPI), running on    28 processors
     R & G space division:  proc/nbgrp/npool/nimage =      28
     Waiting for input...
     Reading input from standard input
Warning: card &IONS ignored
Warning: card / ignored
Warning: card &CELL ignored
Warning: card / ignored

     Current dimensions of program PWSCF are:
     Max number of different atomic species (ntypx) = 10
     Max number of k-points (npk) =  40000
     Max angular momentum in pseudopotentials (lmaxx) =  3

     IMPORTANT: XC functional enforced from input :
     Exchange-correlation      = PBE ( 1  4  3  4 0 0)
     Any further DFT definition will be discarded
     Please, verify this is what you really want


     gamma-point specific algorithms are used

     Subspace diagonalization in iterative solution of the eigenvalue problem:
     a serial algorithm will be used


     Parallelization info
     --------------------
     sticks:   dense  smooth     PW     G-vecs:    dense   smooth      PW
     Min         445     445    110                37558    37558    4694
     Max         448     448    112                37564    37564    4708
     Sum       12517   12517   3125              1051747  1051747  131683
     Tot        6259    6259   1563



     bravais-lattice index     =            1
     lattice parameter (alat)  =      18.8973  a.u.
     unit-cell volume          =    6748.3346 (a.u.)^3
     number of atoms/cell      =            5
     number of atomic types    =            2
     number of electrons       =         8.00
     number of Kohn-Sham states=            4
     kinetic-energy cutoff     =     110.0000  Ry
     charge density cutoff     =     440.0000  Ry
     convergence threshold     =      1.0E-06
     mixing beta               =       0.5000
     number of iterations used =            8  plain     mixing
     Exchange-correlation      = PBE ( 1  4  3  4 0 0)

     celldm(1)=  18.897261  celldm(2)=   0.000000  celldm(3)=   0.000000
     celldm(4)=   0.000000  celldm(5)=   0.000000  celldm(6)=   0.000000

     crystal axes: (cart. coord. in units of alat)
               a(1) = (   1.000000   0.000000   0.000000 )  
               a(2) = (   0.000000   1.000000   0.000000 )  
               a(3) = (   0.000000   0.000000   1.000000 )  

     reciprocal axes: (cart. coord. in units 2 pi/alat)
               b(1) = (  1.000000  0.000000  0.000000 )  
               b(2) = (  0.000000  1.000000  0.000000 )  
               b(3) = (  0.000000  0.000000  1.000000 )  


     PseudoPot. # 1 for  H read from file:
     ../pseudo/H.tm.pbe.UPF
     MD5 check sum: 4b614d66af87240b7a5107bfa527a767
     Pseudo is Norm-conserving, Zval =  1.0
     Generated using "atomic" code by A. Dal Corso  v.5.2.0
     Using radial grid of  929 points,  0 beta functions with: 

     PseudoPot. # 2 for  C read from file:
     ../pseudo/C.tm.pbe.UPF
     MD5 check sum: a4f27fcb9b24331b00ace8e732a7e062
     Pseudo is Norm-conserving, Zval =  4.0
     Generated using "atomic" code by A. Dal Corso  v.5.2.0
     Using radial grid of 1073 points,  1 beta functions with: 
                l(1) =   1

     atomic species   valence    mass     pseudopotential
        H              1.00     1.00000      H( 1.00)
        C              4.00     1.00000      C( 1.00)

     No symmetry found



   Cartesian axes

     site n.     atom                  positions (alat units)
         1           H   tau(   1) = (   0.5366080   0.4060560   0.3611160  )
         2           H   tau(   2) = (   0.3942350   0.4827910   0.4428040  )
         3           H   tau(   3) = (   0.5551490   0.5637680   0.4425710  )
         4           H   tau(   4) = (   0.5284600   0.4137310   0.5364630  )
         5           C   tau(   5) = (   0.5019230   0.4689690   0.4440290  )

     number of k points=     1
                       cart. coord. in units 2pi/alat
        k(    1) = (   0.0000000   0.0000000   0.0000000), wk =   2.0000000

     Dense  grid:   525874 G-vectors     FFT dimensions: ( 128, 128, 128)

     Largest allocated arrays     est. size (Mb)     dimensions
        Kohn-Sham Wavefunctions         0.14 Mb     (    2354,    4)
        NL pseudopotentials             0.11 Mb     (    2354,    3)
        Each V/rho on FFT grid          1.25 Mb     (   81920)
        Each G-vector array             0.14 Mb     (   18782)
        G-vector shells                 0.02 Mb     (    2785)
     Largest temporary arrays     est. size (Mb)     dimensions
        Auxiliary wavefunctions         0.29 Mb     (    2354,   16)
        Each subspace H/S matrix        0.00 Mb     (      16,   16)
        Each <psi_i|beta_j> matrix      0.00 Mb     (       3,    4)
        Arrays for rho mixing          10.00 Mb     (   81920,    8)

     Initial potential from superposition of free atoms
     Check: negative starting charge=   -0.000386

     starting charge    7.99992, renormalised to    8.00000

     negative rho (up, down):  3.862E-04 0.000E+00
     Starting wfc are    8 randomized atomic wfcs

     total cpu time spent up to now is        2.8 secs

     per-process dynamical memory:   430.8 Mb

     Self-consistent Calculation

     iteration #  1     ecut=   110.00 Ry     beta=0.50
     Davidson diagonalization with overlap
     ethr =  1.00E-02,  avg # of iterations =  2.0

     negative rho (up, down):  1.822E-04 0.000E+00

     total cpu time spent up to now is        3.3 secs

     total energy              =     -16.02000453 Ry
     Harris-Foulkes estimate   =     -16.41188936 Ry
     estimated scf accuracy    <       0.69625981 Ry

     iteration #  2     ecut=   110.00 Ry     beta=0.50
     Davidson diagonalization with overlap
     ethr =  8.70E-03,  avg # of iterations =  2.0

     negative rho (up, down):  9.532E-05 0.000E+00

     total cpu time spent up to now is        3.9 secs

     total energy              =     -16.15343349 Ry
     Harris-Foulkes estimate   =     -16.17247054 Ry
     estimated scf accuracy    <       0.04964988 Ry

     iteration #  3     ecut=   110.00 Ry     beta=0.50
     Davidson diagonalization with overlap
     ethr =  6.21E-04,  avg # of iterations =  1.0

     negative rho (up, down):  5.009E-06 0.000E+00

     total cpu time spent up to now is        4.3 secs

     total energy              =     -16.15163900 Ry
     Harris-Foulkes estimate   =     -16.15708526 Ry
     estimated scf accuracy    <       0.01143798 Ry

     iteration #  4     ecut=   110.00 Ry     beta=0.50
     Davidson diagonalization with overlap
     ethr =  1.43E-04,  avg # of iterations =  3.0

     negative rho (up, down):  4.201E-06 0.000E+00

     total cpu time spent up to now is        4.9 secs

     total energy              =     -16.15357112 Ry
     Harris-Foulkes estimate   =     -16.15573135 Ry
     estimated scf accuracy    <       0.00515737 Ry

     iteration #  5     ecut=   110.00 Ry     beta=0.50
     Davidson diagonalization with overlap
     ethr =  6.45E-05,  avg # of iterations =  2.0

     negative rho (up, down):  2.854E-06 0.000E+00

     total cpu time spent up to now is        5.4 secs

     total energy              =     -16.15386427 Ry
     Harris-Foulkes estimate   =     -16.15400727 Ry
     estimated scf accuracy    <       0.00035420 Ry

     iteration #  6     ecut=   110.00 Ry     beta=0.50
     Davidson diagonalization with overlap
     ethr =  4.43E-06,  avg # of iterations =  3.0

     negative rho (up, down):  6.671E-08 0.000E+00

     total cpu time spent up to now is        5.8 secs

     total energy              =     -16.15399477 Ry
     Harris-Foulkes estimate   =     -16.15399282 Ry
     estimated scf accuracy    <       0.00000514 Ry

     iteration #  7     ecut=   110.00 Ry     beta=0.50
     Davidson diagonalization with overlap
     ethr =  6.43E-08,  avg # of iterations =  2.0

     total cpu time spent up to now is        6.4 secs

     total energy              =     -16.15399289 Ry
     Harris-Foulkes estimate   =     -16.15399514 Ry
     estimated scf accuracy    <       0.00000561 Ry

     iteration #  8     ecut=   110.00 Ry     beta=0.50
     Davidson diagonalization with overlap
     ethr =  6.43E-08,  avg # of iterations =  1.0

     total cpu time spent up to now is        6.8 secs

     End of self-consistent calculation

          k = 0.0000 0.0000 0.0000 ( 65842 PWs)   bands (ev):

   -16.8379  -9.4324  -9.3159  -9.0133

     highest occupied level (ev):    -9.0133

!    total energy              =     -16.15399276 Ry
     Harris-Foulkes estimate   =     -16.15399315 Ry
     estimated scf accuracy    <       0.00000070 Ry

     The total energy is the sum of the following terms:

     one-electron contribution =     -40.26530088 Ry
     hartree contribution      =      20.95833185 Ry
     xc contribution           =      -6.34562944 Ry
     ewald contribution        =       9.49860571 Ry

     convergence has been achieved in   8 iterations

     Forces acting on atoms (Ry/au):

     atom    1 type  1   force =    -0.00745982    0.00463140   -0.00612644
     atom    2 type  1   force =    -0.01075161    0.00384731   -0.00690261
     atom    3 type  1   force =     0.00127259    0.01078767   -0.00034671
     atom    4 type  1   force =    -0.00313749    0.01104817   -0.00651343
     atom    5 type  2   force =     0.02007634   -0.03031455    0.01988920

     Total force =     0.047987     Total SCF correction =     0.000694


     entering subroutine stress ...

          total   stress  (Ry/bohr**3)                   (kbar)     P=   -0.16
   0.00000048   0.00000171   0.00000094          0.07      0.25      0.14
   0.00000171  -0.00000150   0.00000172          0.25     -0.22      0.25
   0.00000094   0.00000172  -0.00000223          0.14      0.25     -0.33


     init_run     :      2.38s CPU      2.42s WALL (       1 calls)
     electrons    :      3.91s CPU      3.98s WALL (       1 calls)
     forces       :      1.05s CPU      1.06s WALL (       1 calls)
     stress       :      1.28s CPU      1.29s WALL (       1 calls)

     Called by init_run:
     wfcinit      :      0.11s CPU      0.11s WALL (       1 calls)
     potinit      :      0.93s CPU      0.95s WALL (       1 calls)

     Called by electrons:
     c_bands      :      1.72s CPU      1.73s WALL (       8 calls)
     sum_band     :      0.42s CPU      0.45s WALL (       8 calls)
     v_of_rho     :      1.74s CPU      1.77s WALL (       9 calls)
     mix_rho      :      0.20s CPU      0.21s WALL (       8 calls)

     Called by c_bands:
     init_us_2    :      0.04s CPU      0.04s WALL (      17 calls)
     regterg      :      1.69s CPU      1.70s WALL (       8 calls)

     Called by sum_band:

     Called by *egterg:
     h_psi        :      1.74s CPU      1.75s WALL (      25 calls)
     g_psi        :      0.01s CPU      0.01s WALL (      16 calls)
     rdiaghg      :      0.00s CPU      0.00s WALL (      24 calls)

     Called by h_psi:
     add_vuspsi   :      0.00s CPU      0.00s WALL (      25 calls)

     General routines
     calbec       :      0.47s CPU      0.47s WALL (      30 calls)
     fft          :      1.65s CPU      1.70s WALL (     106 calls)
     fftw         :      1.30s CPU      1.32s WALL (     112 calls)

     Parallel routines
     fft_scatter  :      1.29s CPU      1.35s WALL (     218 calls)

     PWSCF        :     8.98s CPU         9.13s WALL


   This run was terminated on:  19:43:11  22Sep2019            

=------------------------------------------------------------------------------=
   JOB DONE.
=------------------------------------------------------------------------------=
