
     Program PWSCF v.5.4.0 starts on 22Sep2019 at 18:12:42 

     This program is part of the open-source Quantum ESPRESSO suite
     for quantum simulation of materials; please cite
         "P. Giannozzi et al., J. Phys.:Condens. Matter 21 395502 (2009);
          URL http://www.quantum-espresso.org", 
     in publications or presentations arising from this work. More details at
     http://www.quantum-espresso.org/quote

           HOST :    @host@
           ARCH :    
             CC :    cc
            CPP :    cpp
            F90 :    mpif90
            F77 :    gfortran
         DFLAGS :    -D__GFORTRAN -D__STD_F95 -D__FFTW3 -D__MPI -D__PARA
      BLAS LIBS :    -lopenblas
    LAPACK LIBS :    -lopenblas
       FFT LIBS :    -lfftw3
      MASS LIBS :    

     Parallel version (MPI), running on    28 processors
     R & G space division:  proc/nbgrp/npool/nimage =      28
     Waiting for input...
     Reading input from standard input
Warning: card &IONS ignored
Warning: card / ignored
Warning: card &CELL ignored
Warning: card / ignored

     Current dimensions of program PWSCF are:
     Max number of different atomic species (ntypx) = 10
     Max number of k-points (npk) =  40000
     Max angular momentum in pseudopotentials (lmaxx) =  3

     IMPORTANT: XC functional enforced from input :
     Exchange-correlation      = PBE ( 1  4  3  4 0 0)
     Any further DFT definition will be discarded
     Please, verify this is what you really want


     gamma-point specific algorithms are used

     Subspace diagonalization in iterative solution of the eigenvalue problem:
     a serial algorithm will be used


     Parallelization info
     --------------------
     sticks:   dense  smooth     PW     G-vecs:    dense   smooth      PW
     Min         445     445    110                37558    37558    4694
     Max         448     448    112                37564    37564    4708
     Sum       12517   12517   3125              1051747  1051747  131683
     Tot        6259    6259   1563



     bravais-lattice index     =            1
     lattice parameter (alat)  =      18.8973  a.u.
     unit-cell volume          =    6748.3346 (a.u.)^3
     number of atoms/cell      =            5
     number of atomic types    =            2
     number of electrons       =         8.00
     number of Kohn-Sham states=            4
     kinetic-energy cutoff     =     110.0000  Ry
     charge density cutoff     =     440.0000  Ry
     convergence threshold     =      1.0E-06
     mixing beta               =       0.5000
     number of iterations used =            8  plain     mixing
     Exchange-correlation      = PBE ( 1  4  3  4 0 0)

     celldm(1)=  18.897261  celldm(2)=   0.000000  celldm(3)=   0.000000
     celldm(4)=   0.000000  celldm(5)=   0.000000  celldm(6)=   0.000000

     crystal axes: (cart. coord. in units of alat)
               a(1) = (   1.000000   0.000000   0.000000 )  
               a(2) = (   0.000000   1.000000   0.000000 )  
               a(3) = (   0.000000   0.000000   1.000000 )  

     reciprocal axes: (cart. coord. in units 2 pi/alat)
               b(1) = (  1.000000  0.000000  0.000000 )  
               b(2) = (  0.000000  1.000000  0.000000 )  
               b(3) = (  0.000000  0.000000  1.000000 )  


     PseudoPot. # 1 for  H read from file:
     ../pseudo/H.tm.pbe.UPF
     MD5 check sum: 4b614d66af87240b7a5107bfa527a767
     Pseudo is Norm-conserving, Zval =  1.0
     Generated using "atomic" code by A. Dal Corso  v.5.2.0
     Using radial grid of  929 points,  0 beta functions with: 

     PseudoPot. # 2 for  C read from file:
     ../pseudo/C.tm.pbe.UPF
     MD5 check sum: a4f27fcb9b24331b00ace8e732a7e062
     Pseudo is Norm-conserving, Zval =  4.0
     Generated using "atomic" code by A. Dal Corso  v.5.2.0
     Using radial grid of 1073 points,  1 beta functions with: 
                l(1) =   1

     atomic species   valence    mass     pseudopotential
        H              1.00     1.00000      H( 1.00)
        C              4.00     1.00000      C( 1.00)

     No symmetry found



   Cartesian axes

     site n.     atom                  positions (alat units)
         1           H   tau(   1) = (   0.5441490   0.4331730   0.3596920  )
         2           H   tau(   2) = (   0.4088730   0.4940980   0.4519610  )
         3           H   tau(   3) = (   0.5610760   0.5735280   0.4635090  )
         4           H   tau(   4) = (   0.5464030   0.4159190   0.5369820  )
         5           C   tau(   5) = (   0.5162160   0.4773790   0.4543520  )

     number of k points=     1
                       cart. coord. in units 2pi/alat
        k(    1) = (   0.0000000   0.0000000   0.0000000), wk =   2.0000000

     Dense  grid:   525874 G-vectors     FFT dimensions: ( 128, 128, 128)

     Largest allocated arrays     est. size (Mb)     dimensions
        Kohn-Sham Wavefunctions         0.14 Mb     (    2354,    4)
        NL pseudopotentials             0.11 Mb     (    2354,    3)
        Each V/rho on FFT grid          1.25 Mb     (   81920)
        Each G-vector array             0.14 Mb     (   18782)
        G-vector shells                 0.02 Mb     (    2785)
     Largest temporary arrays     est. size (Mb)     dimensions
        Auxiliary wavefunctions         0.29 Mb     (    2354,   16)
        Each subspace H/S matrix        0.00 Mb     (      16,   16)
        Each <psi_i|beta_j> matrix      0.00 Mb     (       3,    4)
        Arrays for rho mixing          10.00 Mb     (   81920,    8)

     Initial potential from superposition of free atoms
     Check: negative starting charge=   -0.000384

     starting charge    7.99992, renormalised to    8.00000

     negative rho (up, down):  3.844E-04 0.000E+00
     Starting wfc are    8 randomized atomic wfcs

     total cpu time spent up to now is       33.3 secs

     per-process dynamical memory:   430.8 Mb

     Self-consistent Calculation

     iteration #  1     ecut=   110.00 Ry     beta=0.50
     Davidson diagonalization with overlap
     ethr =  1.00E-02,  avg # of iterations =  2.0

     negative rho (up, down):  1.807E-04 0.000E+00

     total cpu time spent up to now is       33.8 secs

     total energy              =     -16.01209709 Ry
     Harris-Foulkes estimate   =     -16.42963114 Ry
     estimated scf accuracy    <       0.74062887 Ry

     iteration #  2     ecut=   110.00 Ry     beta=0.50
     Davidson diagonalization with overlap
     ethr =  9.26E-03,  avg # of iterations =  2.0

     negative rho (up, down):  9.336E-05 0.000E+00

     total cpu time spent up to now is       34.4 secs

     total energy              =     -16.15208133 Ry
     Harris-Foulkes estimate   =     -16.17025662 Ry
     estimated scf accuracy    <       0.04803435 Ry

     iteration #  3     ecut=   110.00 Ry     beta=0.50
     Davidson diagonalization with overlap
     ethr =  6.00E-04,  avg # of iterations =  1.0

     negative rho (up, down):  4.171E-06 0.000E+00

     total cpu time spent up to now is       34.7 secs

     total energy              =     -16.14990687 Ry
     Harris-Foulkes estimate   =     -16.15529533 Ry
     estimated scf accuracy    <       0.01129451 Ry

     iteration #  4     ecut=   110.00 Ry     beta=0.50
     Davidson diagonalization with overlap
     ethr =  1.41E-04,  avg # of iterations =  2.0

     negative rho (up, down):  5.312E-06 0.000E+00

     total cpu time spent up to now is       35.2 secs

     total energy              =     -16.15164005 Ry
     Harris-Foulkes estimate   =     -16.15353754 Ry
     estimated scf accuracy    <       0.00427176 Ry

     iteration #  5     ecut=   110.00 Ry     beta=0.50
     Davidson diagonalization with overlap
     ethr =  5.34E-05,  avg # of iterations =  2.0

     negative rho (up, down):  2.345E-06 0.000E+00

     total cpu time spent up to now is       35.7 secs

     total energy              =     -16.15193926 Ry
     Harris-Foulkes estimate   =     -16.15204122 Ry
     estimated scf accuracy    <       0.00021893 Ry

     iteration #  6     ecut=   110.00 Ry     beta=0.50
     Davidson diagonalization with overlap
     ethr =  2.74E-06,  avg # of iterations =  3.0

     total cpu time spent up to now is       36.3 secs

     total energy              =     -16.15205870 Ry
     Harris-Foulkes estimate   =     -16.15205858 Ry
     estimated scf accuracy    <       0.00001492 Ry

     iteration #  7     ecut=   110.00 Ry     beta=0.50
     Davidson diagonalization with overlap
     ethr =  1.87E-07,  avg # of iterations =  1.0

     total cpu time spent up to now is       36.8 secs

     total energy              =     -16.15205359 Ry
     Harris-Foulkes estimate   =     -16.15205912 Ry
     estimated scf accuracy    <       0.00001196 Ry

     iteration #  8     ecut=   110.00 Ry     beta=0.50
     Davidson diagonalization with overlap
     ethr =  1.49E-07,  avg # of iterations =  2.0

     total cpu time spent up to now is       37.2 secs

     End of self-consistent calculation

          k = 0.0000 0.0000 0.0000 ( 65842 PWs)   bands (ev):

   -16.9803  -9.5021  -9.3486  -9.1281

     highest occupied level (ev):    -9.1281

!    total energy              =     -16.15205512 Ry
     Harris-Foulkes estimate   =     -16.15205532 Ry
     estimated scf accuracy    <       0.00000032 Ry

     The total energy is the sum of the following terms:

     one-electron contribution =     -40.81414953 Ry
     hartree contribution      =      21.23980628 Ry
     xc contribution           =      -6.39581225 Ry
     ewald contribution        =       9.81810039 Ry

     convergence has been achieved in   8 iterations

     Forces acting on atoms (Ry/au):

     atom    1 type  1   force =     0.01036824   -0.01073561   -0.01421538
     atom    2 type  1   force =    -0.01559886   -0.00650269    0.00764090
     atom    3 type  1   force =     0.02493255    0.03796695    0.00259874
     atom    4 type  1   force =     0.00288183   -0.01988045    0.02066736
     atom    5 type  2   force =    -0.02258375   -0.00084819   -0.01669162

     Total force =     0.066774     Total SCF correction =     0.000385


     entering subroutine stress ...

          total   stress  (Ry/bohr**3)                   (kbar)     P=    1.28
   0.00000687   0.00000419  -0.00000132          1.01      0.62     -0.19
   0.00000419   0.00001267  -0.00000073          0.62      1.86     -0.11
  -0.00000132  -0.00000073   0.00000656         -0.19     -0.11      0.97


     init_run     :     14.87s CPU     14.90s WALL (       1 calls)
     electrons    :      3.84s CPU      3.89s WALL (       1 calls)
     forces       :      0.91s CPU      0.91s WALL (       1 calls)
     stress       :      1.10s CPU      1.10s WALL (       1 calls)

     Called by init_run:
     wfcinit      :      0.11s CPU      0.12s WALL (       1 calls)
     potinit      :      0.97s CPU      0.98s WALL (       1 calls)

     Called by electrons:
     c_bands      :      1.62s CPU      1.64s WALL (       8 calls)
     sum_band     :      0.44s CPU      0.44s WALL (       8 calls)
     v_of_rho     :      1.75s CPU      1.79s WALL (       9 calls)
     mix_rho      :      0.21s CPU      0.21s WALL (       8 calls)

     Called by c_bands:
     init_us_2    :      0.04s CPU      0.04s WALL (      17 calls)
     regterg      :      1.59s CPU      1.61s WALL (       8 calls)

     Called by sum_band:

     Called by *egterg:
     h_psi        :      1.65s CPU      1.66s WALL (      24 calls)
     g_psi        :      0.01s CPU      0.01s WALL (      15 calls)
     rdiaghg      :      0.00s CPU      0.00s WALL (      23 calls)

     Called by h_psi:
     add_vuspsi   :      0.00s CPU      0.00s WALL (      24 calls)

     General routines
     calbec       :      0.48s CPU      0.48s WALL (      29 calls)
     fft          :      1.68s CPU      1.73s WALL (     106 calls)
     fftw         :      1.19s CPU      1.20s WALL (     112 calls)

     Parallel routines
     fft_scatter  :      1.19s CPU      1.25s WALL (     218 calls)

     PWSCF        :    39.08s CPU        39.24s WALL


   This run was terminated on:  18:13:21  22Sep2019            

=------------------------------------------------------------------------------=
   JOB DONE.
=------------------------------------------------------------------------------=
