-6.378369999999999873e-01 2.472278999999999893e+00 -3.111600000000000130e-02 -9.605179999999999829e-01 -2.319764999999999855e+00 1.581899999999999973e-02 -8.155040000000000067e-01 -2.383347000000000104e+00 3.936200000000000115e-02 1.317436000000000051e+00 -9.329600000000000393e-02 -8.878999999999999740e-03 5.538250000000000117e-01 1.162687000000000026e+00 -1.707429000000000086e+00 5.425980000000000247e-01 1.161442000000000085e+00 1.692242000000000024e+00
