1.563387870788574219e+01 0.000000000000000000e+00 0.000000000000000000e+00 0.000000000000000000e+00 1.563387870788574219e+01 0.000000000000000000e+00 0.000000000000000000e+00 0.000000000000000000e+00 1.563387870788574219e+01
1.552828311920166016e+01 0.000000000000000000e+00 0.000000000000000000e+00 0.000000000000000000e+00 1.552828311920166016e+01 0.000000000000000000e+00 0.000000000000000000e+00 0.000000000000000000e+00 1.552828311920166016e+01
1.568120765686035156e+01 0.000000000000000000e+00 0.000000000000000000e+00 0.000000000000000000e+00 1.568120765686035156e+01 0.000000000000000000e+00 0.000000000000000000e+00 0.000000000000000000e+00 1.568120765686035156e+01
1.556140613555908203e+01 0.000000000000000000e+00 0.000000000000000000e+00 0.000000000000000000e+00 1.556140613555908203e+01 0.000000000000000000e+00 0.000000000000000000e+00 0.000000000000000000e+00 1.556140613555908203e+01
1.563387870788574219e+01 0.000000000000000000e+00 0.000000000000000000e+00 0.000000000000000000e+00 1.563387870788574219e+01 0.000000000000000000e+00 0.000000000000000000e+00 0.000000000000000000e+00 1.563387870788574219e+01
1.552828311920166016e+01 0.000000000000000000e+00 0.000000000000000000e+00 0.000000000000000000e+00 1.552828311920166016e+01 0.000000000000000000e+00 0.000000000000000000e+00 0.000000000000000000e+00 1.552828311920166016e+01
1.563387870788574219e+01 0.000000000000000000e+00 0.000000000000000000e+00 0.000000000000000000e+00 1.563387870788574219e+01 0.000000000000000000e+00 0.000000000000000000e+00 0.000000000000000000e+00 1.563387870788574219e+01
1.560634517669677734e+01 0.000000000000000000e+00 0.000000000000000000e+00 0.000000000000000000e+00 1.560634517669677734e+01 0.000000000000000000e+00 0.000000000000000000e+00 0.000000000000000000e+00 1.560634517669677734e+01
1.552828311920166016e+01 0.000000000000000000e+00 0.000000000000000000e+00 0.000000000000000000e+00 1.552828311920166016e+01 0.000000000000000000e+00 0.000000000000000000e+00 0.000000000000000000e+00 1.552828311920166016e+01
1.552828311920166016e+01 0.000000000000000000e+00 0.000000000000000000e+00 0.000000000000000000e+00 1.552828311920166016e+01 0.000000000000000000e+00 0.000000000000000000e+00 0.000000000000000000e+00 1.552828311920166016e+01
1.568120765686035156e+01 0.000000000000000000e+00 0.000000000000000000e+00 0.000000000000000000e+00 1.568120765686035156e+01 0.000000000000000000e+00 0.000000000000000000e+00 0.000000000000000000e+00 1.568120765686035156e+01
1.568120765686035156e+01 0.000000000000000000e+00 0.000000000000000000e+00 0.000000000000000000e+00 1.568120765686035156e+01 0.000000000000000000e+00 0.000000000000000000e+00 0.000000000000000000e+00 1.568120765686035156e+01
