
     Program PW2WANNIER v.6.7MaX starts on 25Jun2022 at  2:12:41 

     This program is part of the open-source Quantum ESPRESSO suite
     for quantum simulation of materials; please cite
         "P. Giannozzi et al., J. Phys.:Condens. Matter 21 395502 (2009);
         "P. Giannozzi et al., J. Phys.:Condens. Matter 29 465901 (2017);
          URL http://www.quantum-espresso.org", 
     in publications or presentations arising from this work. More details at
     http://www.quantum-espresso.org/quote

     Parallel version (MPI), running on    20 processors

     MPI processes distributed on     1 nodes
     R & G space division:  proc/nbgrp/npool/nimage =      20
 
  Reading nscf_save data

     Reading xml data from directory:

     out/h2o.save/
     Message from routine read_pp_mesh:
     mesh size missing, using the one in header
     Message from routine read_pp_mesh:
     mesh size missing, using the one in header

     IMPORTANT: XC functional enforced from input :
     Exchange-correlation= PBE
                           (   1   4   3   4   0   0   0)
     Any further DFT definition will be discarded
     Please, verify this is what you really want

 
     Parallelization info
     --------------------
     sticks:   dense  smooth     PW     G-vecs:    dense   smooth      PW
     Min         314     314     87                18735    18735    2725
     Max         317     317     88                18736    18736    2730
     Sum        6293    6293   1741               374709   374709   54531
 
     Reading collected, re-writing distributed wavefunctions
 
  Spin CASE ( default = unpolarized )
 
  Wannier mode is: standalone     
 
  -----------------
  *** Reading nnkp 
  -----------------
 
  Checking info from wannier.nnkp file
 
  - Real lattice is ok
  - Reciprocal lattice is ok
  - K-points are ok
  - Number of wannier functions is ok ( 64)
  - All guiding functions are given 
 
 Projections:
    0.022550    0.999970    0.012950 -3  1  1    1.000000
    0.022550    0.999970    0.012950 -3  2  1    1.000000
    0.022550    0.999970    0.012950 -3  3  1    1.000000
    0.022550    0.999970    0.012950 -3  4  1    1.000000
    0.491840    0.001640    0.998480 -3  1  1    1.000000
    0.491840    0.001640    0.998480 -3  2  1    1.000000
    0.491840    0.001640    0.998480 -3  3  1    1.000000
    0.491840    0.001640    0.998480 -3  4  1    1.000000
    0.995770    0.502910    0.020260 -3  1  1    1.000000
    0.995770    0.502910    0.020260 -3  2  1    1.000000
    0.995770    0.502910    0.020260 -3  3  1    1.000000
    0.995770    0.502910    0.020260 -3  4  1    1.000000
    0.507360    0.496960    0.987050 -3  1  1    1.000000
    0.507360    0.496960    0.987050 -3  2  1    1.000000
    0.507360    0.496960    0.987050 -3  3  1    1.000000
    0.507360    0.496960    0.987050 -3  4  1    1.000000
    0.989120    0.976390    0.470750 -3  1  1    1.000000
    0.989120    0.976390    0.470750 -3  2  1    1.000000
    0.989120    0.976390    0.470750 -3  3  1    1.000000
    0.989120    0.976390    0.470750 -3  4  1    1.000000
    0.509900    0.016240    0.501720 -3  1  1    1.000000
    0.509900    0.016240    0.501720 -3  2  1    1.000000
    0.509900    0.016240    0.501720 -3  3  1    1.000000
    0.509900    0.016240    0.501720 -3  4  1    1.000000
    0.976580    0.501920    0.503680 -3  1  1    1.000000
    0.976580    0.501920    0.503680 -3  2  1    1.000000
    0.976580    0.501920    0.503680 -3  3  1    1.000000
    0.976580    0.501920    0.503680 -3  4  1    1.000000
    0.503360    0.484000    0.491050 -3  1  1    1.000000
    0.503360    0.484000    0.491050 -3  2  1    1.000000
    0.503360    0.484000    0.491050 -3  3  1    1.000000
    0.503360    0.484000    0.491050 -3  4  1    1.000000
    0.235880    0.248870    0.267020 -3  1  1    1.000000
    0.235880    0.248870    0.267020 -3  2  1    1.000000
    0.235880    0.248870    0.267020 -3  3  1    1.000000
    0.235880    0.248870    0.267020 -3  4  1    1.000000
    0.748700    0.240060    0.236480 -3  1  1    1.000000
    0.748700    0.240060    0.236480 -3  2  1    1.000000
    0.748700    0.240060    0.236480 -3  3  1    1.000000
    0.748700    0.240060    0.236480 -3  4  1    1.000000
    0.261670    0.750440    0.254650 -3  1  1    1.000000
    0.261670    0.750440    0.254650 -3  2  1    1.000000
    0.261670    0.750440    0.254650 -3  3  1    1.000000
    0.261670    0.750440    0.254650 -3  4  1    1.000000
    0.747290    0.759000    0.230290 -3  1  1    1.000000
    0.747290    0.759000    0.230290 -3  2  1    1.000000
    0.747290    0.759000    0.230290 -3  3  1    1.000000
    0.747290    0.759000    0.230290 -3  4  1    1.000000
    0.236170    0.244110    0.742080 -3  1  1    1.000000
    0.236170    0.244110    0.742080 -3  2  1    1.000000
    0.236170    0.244110    0.742080 -3  3  1    1.000000
    0.236170    0.244110    0.742080 -3  4  1    1.000000
    0.767190    0.233230    0.758300 -3  1  1    1.000000
    0.767190    0.233230    0.758300 -3  2  1    1.000000
    0.767190    0.233230    0.758300 -3  3  1    1.000000
    0.767190    0.233230    0.758300 -3  4  1    1.000000
    0.270770    0.746470    0.752530 -3  1  1    1.000000
    0.270770    0.746470    0.752530 -3  2  1    1.000000
    0.270770    0.746470    0.752530 -3  3  1    1.000000
    0.270770    0.746470    0.752530 -3  4  1    1.000000
    0.747950    0.766570    0.771680 -3  1  1    1.000000
    0.747950    0.766570    0.771680 -3  2  1    1.000000
    0.747950    0.766570    0.771680 -3  3  1    1.000000
    0.747950    0.766570    0.771680 -3  4  1    1.000000
 
  Reading data about k-point neighbours 
 
  All neighbours are found 
 
  Opening pp-files 
 
 
  --------------------------
  *** Compute  A projections
  --------------------------
 
  AMN: iknum =       27
       1       2       3       4       5       6       7       8       9      10
      11      12      13      14      15      16      17      18      19      20
      21      22      23      24      25      26      27

  AMN calculated
 
  ---------------
  *** Compute  M 
  ---------------
 
  MMN: iknum =       27
       1       2       3       4       5       6       7       8       9      10
      11      12      13      14      15      16      17      18      19      20
      21      22      23      24      25      26      27

  MMN calculated
 
  -----------------------------------
  *** Orbital terms are not computed 
  -----------------------------------
 
  ----------------
  *** Write bands 
  ----------------
 
 
  -----------------------------
  *** Plot info is not printed 
  -----------------------------
 
  -----------------------------
  *** Parity info is not printed 
  -----------------------------
 
  ------------
  *** Stop pp 
  ------------
 
 
     init_pw2wan  :      1.01s CPU      1.74s WALL (       1 calls)
     compute_amn  :     54.41s CPU     55.21s WALL (       1 calls)
     compute_mmn  :      9.92s CPU     12.15s WALL (       1 calls)
 
     PW2WANNIER   :   1m 5.35s CPU   1m 9.12s WALL

 
   This run was terminated on:   2:13:50  25Jun2022            

=------------------------------------------------------------------------------=
   JOB DONE.
=------------------------------------------------------------------------------=
 
