File written on 25Jun2022 at 02:12:21 

calc_only_A  :  F

begin real_lattice
   6.0717690   0.0000000   0.0000000
   0.0000000   6.0717690   0.0000000
   0.0000000   0.0000000   6.0717690
end real_lattice

begin recip_lattice
   1.0348196   0.0000000   0.0000000
   0.0000000   1.0348196   0.0000000
   0.0000000   0.0000000   1.0348196
end recip_lattice

begin kpoints
    27
    0.00000000    0.00000000    0.00000000
    0.00000000    0.00000000    0.33333333
    0.00000000    0.00000000    0.66666667
    0.00000000    0.33333333    0.00000000
    0.00000000    0.33333333    0.33333333
    0.00000000    0.33333333    0.66666667
    0.00000000    0.66666667    0.00000000
    0.00000000    0.66666667    0.33333333
    0.00000000    0.66666667    0.66666667
    0.33333333    0.00000000    0.00000000
    0.33333333    0.00000000    0.33333333
    0.33333333    0.00000000    0.66666667
    0.33333333    0.33333333    0.00000000
    0.33333333    0.33333333    0.33333333
    0.33333333    0.33333333    0.66666667
    0.33333333    0.66666667    0.00000000
    0.33333333    0.66666667    0.33333333
    0.33333333    0.66666667    0.66666667
    0.66666667    0.00000000    0.00000000
    0.66666667    0.00000000    0.33333333
    0.66666667    0.00000000    0.66666667
    0.66666667    0.33333333    0.00000000
    0.66666667    0.33333333    0.33333333
    0.66666667    0.33333333    0.66666667
    0.66666667    0.66666667    0.00000000
    0.66666667    0.66666667    0.33333333
    0.66666667    0.66666667    0.66666667
end kpoints

begin projections
    64
   0.02255    0.99997    0.01295    -3  1  1
    0.0000000  0.0000000  1.0000000   1.0000000  0.0000000  0.0000000    1.00
   0.02255    0.99997    0.01295    -3  2  1
    0.0000000  0.0000000  1.0000000   1.0000000  0.0000000  0.0000000    1.00
   0.02255    0.99997    0.01295    -3  3  1
    0.0000000  0.0000000  1.0000000   1.0000000  0.0000000  0.0000000    1.00
   0.02255    0.99997    0.01295    -3  4  1
    0.0000000  0.0000000  1.0000000   1.0000000  0.0000000  0.0000000    1.00
   0.49184    0.00164    0.99848    -3  1  1
    0.0000000  0.0000000  1.0000000   1.0000000  0.0000000  0.0000000    1.00
   0.49184    0.00164    0.99848    -3  2  1
    0.0000000  0.0000000  1.0000000   1.0000000  0.0000000  0.0000000    1.00
   0.49184    0.00164    0.99848    -3  3  1
    0.0000000  0.0000000  1.0000000   1.0000000  0.0000000  0.0000000    1.00
   0.49184    0.00164    0.99848    -3  4  1
    0.0000000  0.0000000  1.0000000   1.0000000  0.0000000  0.0000000    1.00
   0.99577    0.50291    0.02026    -3  1  1
    0.0000000  0.0000000  1.0000000   1.0000000  0.0000000  0.0000000    1.00
   0.99577    0.50291    0.02026    -3  2  1
    0.0000000  0.0000000  1.0000000   1.0000000  0.0000000  0.0000000    1.00
   0.99577    0.50291    0.02026    -3  3  1
    0.0000000  0.0000000  1.0000000   1.0000000  0.0000000  0.0000000    1.00
   0.99577    0.50291    0.02026    -3  4  1
    0.0000000  0.0000000  1.0000000   1.0000000  0.0000000  0.0000000    1.00
   0.50736    0.49696    0.98705    -3  1  1
    0.0000000  0.0000000  1.0000000   1.0000000  0.0000000  0.0000000    1.00
   0.50736    0.49696    0.98705    -3  2  1
    0.0000000  0.0000000  1.0000000   1.0000000  0.0000000  0.0000000    1.00
   0.50736    0.49696    0.98705    -3  3  1
    0.0000000  0.0000000  1.0000000   1.0000000  0.0000000  0.0000000    1.00
   0.50736    0.49696    0.98705    -3  4  1
    0.0000000  0.0000000  1.0000000   1.0000000  0.0000000  0.0000000    1.00
   0.98912    0.97639    0.47075    -3  1  1
    0.0000000  0.0000000  1.0000000   1.0000000  0.0000000  0.0000000    1.00
   0.98912    0.97639    0.47075    -3  2  1
    0.0000000  0.0000000  1.0000000   1.0000000  0.0000000  0.0000000    1.00
   0.98912    0.97639    0.47075    -3  3  1
    0.0000000  0.0000000  1.0000000   1.0000000  0.0000000  0.0000000    1.00
   0.98912    0.97639    0.47075    -3  4  1
    0.0000000  0.0000000  1.0000000   1.0000000  0.0000000  0.0000000    1.00
   0.50990    0.01624    0.50172    -3  1  1
    0.0000000  0.0000000  1.0000000   1.0000000  0.0000000  0.0000000    1.00
   0.50990    0.01624    0.50172    -3  2  1
    0.0000000  0.0000000  1.0000000   1.0000000  0.0000000  0.0000000    1.00
   0.50990    0.01624    0.50172    -3  3  1
    0.0000000  0.0000000  1.0000000   1.0000000  0.0000000  0.0000000    1.00
   0.50990    0.01624    0.50172    -3  4  1
    0.0000000  0.0000000  1.0000000   1.0000000  0.0000000  0.0000000    1.00
   0.97658    0.50192    0.50368    -3  1  1
    0.0000000  0.0000000  1.0000000   1.0000000  0.0000000  0.0000000    1.00
   0.97658    0.50192    0.50368    -3  2  1
    0.0000000  0.0000000  1.0000000   1.0000000  0.0000000  0.0000000    1.00
   0.97658    0.50192    0.50368    -3  3  1
    0.0000000  0.0000000  1.0000000   1.0000000  0.0000000  0.0000000    1.00
   0.97658    0.50192    0.50368    -3  4  1
    0.0000000  0.0000000  1.0000000   1.0000000  0.0000000  0.0000000    1.00
   0.50336    0.48400    0.49105    -3  1  1
    0.0000000  0.0000000  1.0000000   1.0000000  0.0000000  0.0000000    1.00
   0.50336    0.48400    0.49105    -3  2  1
    0.0000000  0.0000000  1.0000000   1.0000000  0.0000000  0.0000000    1.00
   0.50336    0.48400    0.49105    -3  3  1
    0.0000000  0.0000000  1.0000000   1.0000000  0.0000000  0.0000000    1.00
   0.50336    0.48400    0.49105    -3  4  1
    0.0000000  0.0000000  1.0000000   1.0000000  0.0000000  0.0000000    1.00
   0.23588    0.24887    0.26702    -3  1  1
    0.0000000  0.0000000  1.0000000   1.0000000  0.0000000  0.0000000    1.00
   0.23588    0.24887    0.26702    -3  2  1
    0.0000000  0.0000000  1.0000000   1.0000000  0.0000000  0.0000000    1.00
   0.23588    0.24887    0.26702    -3  3  1
    0.0000000  0.0000000  1.0000000   1.0000000  0.0000000  0.0000000    1.00
   0.23588    0.24887    0.26702    -3  4  1
    0.0000000  0.0000000  1.0000000   1.0000000  0.0000000  0.0000000    1.00
   0.74870    0.24006    0.23648    -3  1  1
    0.0000000  0.0000000  1.0000000   1.0000000  0.0000000  0.0000000    1.00
   0.74870    0.24006    0.23648    -3  2  1
    0.0000000  0.0000000  1.0000000   1.0000000  0.0000000  0.0000000    1.00
   0.74870    0.24006    0.23648    -3  3  1
    0.0000000  0.0000000  1.0000000   1.0000000  0.0000000  0.0000000    1.00
   0.74870    0.24006    0.23648    -3  4  1
    0.0000000  0.0000000  1.0000000   1.0000000  0.0000000  0.0000000    1.00
   0.26167    0.75044    0.25465    -3  1  1
    0.0000000  0.0000000  1.0000000   1.0000000  0.0000000  0.0000000    1.00
   0.26167    0.75044    0.25465    -3  2  1
    0.0000000  0.0000000  1.0000000   1.0000000  0.0000000  0.0000000    1.00
   0.26167    0.75044    0.25465    -3  3  1
    0.0000000  0.0000000  1.0000000   1.0000000  0.0000000  0.0000000    1.00
   0.26167    0.75044    0.25465    -3  4  1
    0.0000000  0.0000000  1.0000000   1.0000000  0.0000000  0.0000000    1.00
   0.74729    0.75900    0.23029    -3  1  1
    0.0000000  0.0000000  1.0000000   1.0000000  0.0000000  0.0000000    1.00
   0.74729    0.75900    0.23029    -3  2  1
    0.0000000  0.0000000  1.0000000   1.0000000  0.0000000  0.0000000    1.00
   0.74729    0.75900    0.23029    -3  3  1
    0.0000000  0.0000000  1.0000000   1.0000000  0.0000000  0.0000000    1.00
   0.74729    0.75900    0.23029    -3  4  1
    0.0000000  0.0000000  1.0000000   1.0000000  0.0000000  0.0000000    1.00
   0.23617    0.24411    0.74208    -3  1  1
    0.0000000  0.0000000  1.0000000   1.0000000  0.0000000  0.0000000    1.00
   0.23617    0.24411    0.74208    -3  2  1
    0.0000000  0.0000000  1.0000000   1.0000000  0.0000000  0.0000000    1.00
   0.23617    0.24411    0.74208    -3  3  1
    0.0000000  0.0000000  1.0000000   1.0000000  0.0000000  0.0000000    1.00
   0.23617    0.24411    0.74208    -3  4  1
    0.0000000  0.0000000  1.0000000   1.0000000  0.0000000  0.0000000    1.00
   0.76719    0.23323    0.75830    -3  1  1
    0.0000000  0.0000000  1.0000000   1.0000000  0.0000000  0.0000000    1.00
   0.76719    0.23323    0.75830    -3  2  1
    0.0000000  0.0000000  1.0000000   1.0000000  0.0000000  0.0000000    1.00
   0.76719    0.23323    0.75830    -3  3  1
    0.0000000  0.0000000  1.0000000   1.0000000  0.0000000  0.0000000    1.00
   0.76719    0.23323    0.75830    -3  4  1
    0.0000000  0.0000000  1.0000000   1.0000000  0.0000000  0.0000000    1.00
   0.27077    0.74647    0.75253    -3  1  1
    0.0000000  0.0000000  1.0000000   1.0000000  0.0000000  0.0000000    1.00
   0.27077    0.74647    0.75253    -3  2  1
    0.0000000  0.0000000  1.0000000   1.0000000  0.0000000  0.0000000    1.00
   0.27077    0.74647    0.75253    -3  3  1
    0.0000000  0.0000000  1.0000000   1.0000000  0.0000000  0.0000000    1.00
   0.27077    0.74647    0.75253    -3  4  1
    0.0000000  0.0000000  1.0000000   1.0000000  0.0000000  0.0000000    1.00
   0.74795    0.76657    0.77168    -3  1  1
    0.0000000  0.0000000  1.0000000   1.0000000  0.0000000  0.0000000    1.00
   0.74795    0.76657    0.77168    -3  2  1
    0.0000000  0.0000000  1.0000000   1.0000000  0.0000000  0.0000000    1.00
   0.74795    0.76657    0.77168    -3  3  1
    0.0000000  0.0000000  1.0000000   1.0000000  0.0000000  0.0000000    1.00
   0.74795    0.76657    0.77168    -3  4  1
    0.0000000  0.0000000  1.0000000   1.0000000  0.0000000  0.0000000    1.00
end projections

begin nnkpts
   6
     1     2      0   0   0
     1     4      0   0   0
     1    10      0   0   0
     1     3      0   0  -1
     1     7      0  -1   0
     1    19     -1   0   0
     2     1      0   0   0
     2     3      0   0   0
     2     5      0   0   0
     2    11      0   0   0
     2     8      0  -1   0
     2    20     -1   0   0
     3     2      0   0   0
     3     6      0   0   0
     3    12      0   0   0
     3     1      0   0   1
     3     9      0  -1   0
     3    21     -1   0   0
     4     1      0   0   0
     4     5      0   0   0
     4     7      0   0   0
     4    13      0   0   0
     4     6      0   0  -1
     4    22     -1   0   0
     5     2      0   0   0
     5     4      0   0   0
     5     6      0   0   0
     5     8      0   0   0
     5    14      0   0   0
     5    23     -1   0   0
     6     3      0   0   0
     6     5      0   0   0
     6     9      0   0   0
     6    15      0   0   0
     6     4      0   0   1
     6    24     -1   0   0
     7     4      0   0   0
     7     8      0   0   0
     7    16      0   0   0
     7     1      0   1   0
     7     9      0   0  -1
     7    25     -1   0   0
     8     5      0   0   0
     8     7      0   0   0
     8     9      0   0   0
     8    17      0   0   0
     8     2      0   1   0
     8    26     -1   0   0
     9     6      0   0   0
     9     8      0   0   0
     9    18      0   0   0
     9     3      0   1   0
     9     7      0   0   1
     9    27     -1   0   0
    10     1      0   0   0
    10    11      0   0   0
    10    13      0   0   0
    10    19      0   0   0
    10    12      0   0  -1
    10    16      0  -1   0
    11     2      0   0   0
    11    10      0   0   0
    11    12      0   0   0
    11    14      0   0   0
    11    20      0   0   0
    11    17      0  -1   0
    12     3      0   0   0
    12    11      0   0   0
    12    15      0   0   0
    12    21      0   0   0
    12    10      0   0   1
    12    18      0  -1   0
    13     4      0   0   0
    13    10      0   0   0
    13    14      0   0   0
    13    16      0   0   0
    13    22      0   0   0
    13    15      0   0  -1
    14     5      0   0   0
    14    11      0   0   0
    14    13      0   0   0
    14    15      0   0   0
    14    17      0   0   0
    14    23      0   0   0
    15     6      0   0   0
    15    12      0   0   0
    15    14      0   0   0
    15    18      0   0   0
    15    24      0   0   0
    15    13      0   0   1
    16     7      0   0   0
    16    13      0   0   0
    16    17      0   0   0
    16    25      0   0   0
    16    10      0   1   0
    16    18      0   0  -1
    17     8      0   0   0
    17    14      0   0   0
    17    16      0   0   0
    17    18      0   0   0
    17    26      0   0   0
    17    11      0   1   0
    18     9      0   0   0
    18    15      0   0   0
    18    17      0   0   0
    18    27      0   0   0
    18    12      0   1   0
    18    16      0   0   1
    19    10      0   0   0
    19    20      0   0   0
    19    22      0   0   0
    19     1      1   0   0
    19    21      0   0  -1
    19    25      0  -1   0
    20    11      0   0   0
    20    19      0   0   0
    20    21      0   0   0
    20    23      0   0   0
    20     2      1   0   0
    20    26      0  -1   0
    21    12      0   0   0
    21    20      0   0   0
    21    24      0   0   0
    21     3      1   0   0
    21    19      0   0   1
    21    27      0  -1   0
    22    13      0   0   0
    22    19      0   0   0
    22    23      0   0   0
    22    25      0   0   0
    22     4      1   0   0
    22    24      0   0  -1
    23    14      0   0   0
    23    20      0   0   0
    23    22      0   0   0
    23    24      0   0   0
    23    26      0   0   0
    23     5      1   0   0
    24    15      0   0   0
    24    21      0   0   0
    24    23      0   0   0
    24    27      0   0   0
    24     6      1   0   0
    24    22      0   0   1
    25    16      0   0   0
    25    22      0   0   0
    25    26      0   0   0
    25     7      1   0   0
    25    19      0   1   0
    25    27      0   0  -1
    26    17      0   0   0
    26    23      0   0   0
    26    25      0   0   0
    26    27      0   0   0
    26     8      1   0   0
    26    20      0   1   0
    27    18      0   0   0
    27    24      0   0   0
    27    26      0   0   0
    27     9      1   0   0
    27    21      0   1   0
    27    25      0   0   1
end nnkpts

begin exclude_bands
   0
end exclude_bands
