 
             +---------------------------------------------------+
             |                                                   |
             |                   WANNIER90                       |
             |                                                   |
             +---------------------------------------------------+
             |                                                   |
             |        Welcome to the Maximally-Localized         |
             |        Generalized Wannier Functions code         |
             |            http://www.wannier.org                 |
             |                                                   |
             |                                                   |
             |  Wannier90 Developer Group:                       |
             |    Giovanni Pizzi    (EPFL)                       |
             |    Valerio Vitale    (Cambridge)                  |
             |    David Vanderbilt  (Rutgers University)         |
             |    Nicola Marzari    (EPFL)                       |
             |    Ivo Souza         (Universidad del Pais Vasco) |
             |    Arash A. Mostofi  (Imperial College London)    |
             |    Jonathan R. Yates (University of Oxford)       |
             |                                                   |
             |  For the full list of Wannier90 3.x authors,      |
             |  please check the code documentation and the      |
             |  README on the GitHub page of the code            |
             |                                                   |
             |                                                   |
             |  Please cite                                      |
             |                                                   |
             |  [ref] "Wannier90 as a community code:            |
             |        new features and applications",            |
             |        G. Pizzi et al., J. Phys. Cond. Matt. 32,  |
             |        165902 (2020).                             |
             |        http://doi.org/10.1088/1361-648X/ab51ff    |
             |                                                   |
             |  in any publications arising from the use of      |
             |  this code. For the method please cite            |
             |                                                   |
             |  [ref] "Maximally Localized Generalised Wannier   |
             |         Functions for Composite Energy Bands"     |
             |         N. Marzari and D. Vanderbilt              |
             |         Phys. Rev. B 56 12847 (1997)              |
             |                                                   |
             |  [ref] "Maximally Localized Wannier Functions     |
             |         for Entangled Energy Bands"               |
             |         I. Souza, N. Marzari and D. Vanderbilt    |
             |         Phys. Rev. B 65 035109 (2001)             |
             |                                                   |
             |                                                   |
             | Copyright (c) 1996-2020                           |
             |        The Wannier90 Developer Group and          |
             |        individual contributors                    |
             |                                                   |
             |      Release: 3.1.0        5th March    2020      |
             |                                                   |
             | This program is free software; you can            |
             | redistribute it and/or modify it under the terms  |
             | of the GNU General Public License as published by |
             | the Free Software Foundation; either version 2 of |
             | the License, or (at your option) any later version|
             |                                                   |
             | This program is distributed in the hope that it   |
             | will be useful, but WITHOUT ANY WARRANTY; without |
             | even the implied warranty of MERCHANTABILITY or   |
             | FITNESS FOR A PARTICULAR PURPOSE. See the GNU     |
             | General Public License for more details.          |
             |                                                   |
             | You should have received a copy of the GNU General|
             | Public License along with this program; if not,   |
             | write to the Free Software Foundation, Inc.,      |
             | 675 Mass Ave, Cambridge, MA 02139, USA.           |
             |                                                   |
             +---------------------------------------------------+
             |    Execution started on 25Jun2022 at 02:14:10     |
             +---------------------------------------------------+
 
 ******************************************************************************
 * -> Using CODATA 2006 constant values                                       *
 *    (http://physics.nist.gov/cuu/Constants/index.html)                      *
 * -> Using Bohr value from CODATA                                            *
 ******************************************************************************
 

 Running in parallel on  20 CPUs

 
                                    ------
                                    SYSTEM
                                    ------
 
                              Lattice Vectors (Ang)
                    a_1     6.071769   0.000000   0.000000
                    a_2     0.000000   6.071769   0.000000
                    a_3     0.000000   0.000000   6.071769
 
                   Unit Cell Volume:     223.84414  (Ang^3)
 
                        Reciprocal-Space Vectors (Ang^-1)
                    b_1     1.034820   0.000000   0.000000
                    b_2     0.000000   1.034820   0.000000
                    b_3     0.000000   0.000000   1.034820
  
 *----------------------------------------------------------------------------*
 |   Site       Fractional Coordinate          Cartesian Coordinate (Ang)     |
 +----------------------------------------------------------------------------+
 | O    1   0.02255   0.99997   0.01295   |    0.13692   6.07158   0.07861    |
 | O    2   0.49184   0.00164   0.99848   |    2.98635   0.00996   6.06253    |
 | O    3   0.99577   0.50291   0.02026   |    6.04608   3.05354   0.12299    |
 | O    4   0.50736   0.49696   0.98705   |    3.08059   3.01743   5.99313    |
 | O    5   0.98912   0.97639   0.47075   |    6.00570   5.92840   2.85826    |
 | O    6   0.50990   0.01624   0.50172   |    3.09599   0.09861   3.04636    |
 | O    7   0.97658   0.50192   0.50368   |    5.92959   3.04754   3.05825    |
 | O    8   0.50336   0.48400   0.49105   |    3.05629   2.93874   2.98152    |
 | O    9   0.23588   0.24887   0.26702   |    1.43223   1.51107   1.62126    |
 | O   10   0.74870   0.24006   0.23648   |    4.54594   1.45758   1.43586    |
 | O   11   0.26167   0.75044   0.25465   |    1.58878   4.55649   1.54615    |
 | O   12   0.74729   0.75900   0.23029   |    4.53738   4.60846   1.39824    |
 | O   13   0.23617   0.24411   0.74208   |    1.43395   1.48220   4.50577    |
 | O   14   0.76719   0.23323   0.75830   |    4.65820   1.41613   4.60421    |
 | O   15   0.27077   0.74647   0.75253   |    1.64403   4.53240   4.56921    |
 | O   16   0.74795   0.76657   0.77168   |    4.54139   4.65442   4.68546    |
 | H    1   0.13817   0.15482   0.16656   |    0.83894   0.94002   1.01130    |
 | H    2   0.66087   0.13282   0.14331   |    4.01264   0.80644   0.87012    |
 | H    3   0.16526   0.67262   0.14443   |    1.00342   4.08401   0.87695    |
 | H    4   0.59604   0.58990   0.08147   |    3.61899   3.58174   0.49466    |
 | H    5   0.06335   0.07030   0.57047   |    0.38465   0.42682   3.46373    |
 | H    6   0.67948   0.11411   0.67090   |    4.12563   0.69284   4.07353    |
 | H    7   0.18761   0.63542   0.67519   |    1.13915   3.85814   4.09959    |
 | H    8   0.65541   0.65230   0.71498   |    3.97953   3.96062   4.34117    |
 | H    9   0.05435   0.39330   0.42063   |    0.33001   2.38801   2.55400    |
 | H   10   0.59302   0.40195   0.38199   |    3.60067   2.44055   2.31935    |
 | H   11   0.09872   0.88331   0.38801   |    0.59942   5.36327   2.35593    |
 | H   12   0.66874   0.86160   0.33565   |    4.06041   5.23142   2.03797    |
 | H   13   0.13067   0.32843   0.82982   |    0.79341   1.99413   5.03850    |
 | H   14   0.60227   0.38230   0.91685   |    3.65684   2.32124   5.56691    |
 | H   15   0.09361   0.90479   0.90130   |    0.56840   5.49369   5.47251    |
 | H   16   0.58315   0.91990   0.89013   |    3.54074   5.58542   5.40468    |
 | H   17   0.81855   0.14352   0.33677   |    4.97006   0.87140   2.04480    |
 | H   18   0.39592   0.09414   0.39946   |    2.40395   0.57158   2.42545    |
 | H   19   0.83269   0.65464   0.33277   |    5.05588   3.97481   2.02052    |
 | H   20   0.33821   0.64693   0.35230   |    2.05353   3.92801   2.13906    |
 | H   21   0.86379   0.13281   0.85012   |    5.24474   0.80637   5.16171    |
 | H   22   0.32681   0.15921   0.85311   |    1.98430   0.96666   5.17987    |
 | H   23   0.90046   0.61146   0.94912   |    5.46741   3.71266   5.76286    |
 | H   24   0.35844   0.64306   0.85089   |    2.17639   3.90449   5.16643    |
 | H   25   0.32495   0.35702   0.16540   |    1.97304   2.16772   1.00428    |
 | H   26   0.90593   0.38332   0.09906   |    5.50059   2.32746   0.60148    |
 | H   27   0.40793   0.90424   0.09282   |    2.47688   5.49034   0.56358    |
 | H   28   0.92024   0.90682   0.09409   |    5.58751   5.50601   0.57127    |
 | H   29   0.40362   0.37779   0.56695   |    2.45066   2.29383   3.44242    |
 | H   30   0.86916   0.42391   0.60508   |    5.27736   2.57386   3.67394    |
 | H   31   0.41532   0.90646   0.57892   |    2.52171   5.50385   3.51505    |
 | H   32   0.84990   0.80412   0.64941   |    5.16042   4.88246   3.94308    |
 *----------------------------------------------------------------------------*
                                ------------
                                K-POINT GRID
                                ------------
  
             Grid size =  3 x  3 x  3      Total points =   27
  
  
 *---------------------------------- MAIN ------------------------------------*
 |  Number of Wannier Functions               :                64             |
 |  Number of Objective Wannier Functions     :                64             |
 |  Number of input Bloch states              :                64             |
 |  Output verbosity (1=low, 5=high)          :                 1             |
 |  Timing Level (1=low, 5=high)              :                 1             |
 |  Optimisation (0=memory, 3=speed)          :                 3             |
 |  Length Unit                               :               Ang             |
 |  Post-processing setup (write *.nnkp)      :                 F             |
 |  Using Gamma-only branch of algorithms     :                 F             |
 *----------------------------------------------------------------------------*
 *------------------------------- WANNIERISE ---------------------------------*
 |  Total number of iterations                :               100             |
 |  Number of CG steps before reset           :                 5             |
 |  Trial step length for line search         :             2.000             |
 |  Convergence tolerence                     :         0.100E-09             |
 |  Convergence window                        :                -1             |
 |  Iterations between writing output         :                 1             |
 |  Iterations between backing up to disk     :               100             |
 |  Write r^2_nm to file                      :                 F             |
 |  Write xyz WF centres to file              :                 T             |
 |  Write on-site energies <0n|H|0n> to file  :                 F             |
 |  Use guiding centre to control phases      :                 T             |
 |  Use phases for initial projections        :                 F             |
 |  Iterations before starting guiding centres:                 0             |
 |  Iterations between using guiding centres  :                 1             |
 *----------------------------------------------------------------------------*
 Time to read parameters        0.008 (sec)

 *---------------------------------- K-MESH ----------------------------------*
 +----------------------------------------------------------------------------+
 |                    Distance to Nearest-Neighbour Shells                    |
 |                    ------------------------------------                    |
 |          Shell             Distance (Ang^-1)          Multiplicity         |
 |          -----             -----------------          ------------         |
 |             1                   0.344940                      6            |
 |             2                   0.487819                     12            |
 |             3                   0.597453                      8            |
 |             4                   0.689880                      6            |
 |             5                   0.771309                     24            |
 |             6                   0.844927                     24            |
 |             7                   0.975637                     12            |
 |             8                   1.034820                     30            |
 |             9                   1.090796                     24            |
 |            10                   1.144036                     24            |
 |            11                   1.194907                      8            |
 |            12                   1.243698                     24            |
 |            13                   1.290647                     48            |
 |            14                   1.379759                      6            |
 |            15                   1.422223                     48            |
 |            16                   1.463456                     36            |
 |            17                   1.503558                     24            |
 |            18                   1.542618                     24            |
 |            19                   1.580713                     48            |
 |            20                   1.617911                     24            |
 |            21                   1.689853                     24            |
 |            22                   1.724699                     30            |
 |            23                   1.758855                     72            |
 |            24                   1.792360                     32            |
 |            25                   1.857558                     72            |
 |            26                   1.889313                     48            |
 |            27                   1.951274                     12            |
 |            28                   1.981529                     48            |
 |            29                   2.011328                     48            |
 |            30                   2.040692                     48            |
 |            31                   2.069639                     30            |
 |            32                   2.098187                     24            |
 |            33                   2.126352                     72            |
 |            34                   2.181591                     24            |
 |            35                   2.208693                     96            |
 |            36                   2.235466                     48            |
 +----------------------------------------------------------------------------+
 | The b-vectors are chosen automatically                                     |
 | The following shells are used:   1                                         |
 +----------------------------------------------------------------------------+
 |                        Shell   # Nearest-Neighbours                        |
 |                        -----   --------------------                        |
 |                          1               6                                 |
 +----------------------------------------------------------------------------+
 | Completeness relation is fully satisfied [Eq. (B1), PRB 56, 12847 (1997)]  |
 +----------------------------------------------------------------------------+
 |                  b_k Vectors (Ang^-1) and Weights (Ang^2)                  |
 |                  ----------------------------------------                  |
 |            No.         b_k(x)      b_k(y)      b_k(z)        w_b           |
 |            ---        --------------------------------     --------        |
 |             1         0.000000    0.000000    0.344940     4.202263        |
 |             2         0.000000    0.344940    0.000000     4.202263        |
 |             3         0.344940    0.000000    0.000000     4.202263        |
 |             4         0.000000    0.000000   -0.344940     4.202263        |
 |             5         0.000000   -0.344940    0.000000     4.202263        |
 |             6        -0.344940    0.000000    0.000000     4.202263        |
 +----------------------------------------------------------------------------+
 |                           b_k Directions (Ang^-1)                          |
 |                           -----------------------                          |
 |            No.           x           y           z                         |
 |            ---        --------------------------------                     |
 |             1         0.000000    0.000000    0.344940                     |
 |             2         0.000000    0.344940    0.000000                     |
 |             3         0.344940    0.000000    0.000000                     |
 +----------------------------------------------------------------------------+
  
 Time to get kmesh              0.019 (sec)
 *============================================================================*
 |                              MEMORY ESTIMATE                               |
 |         Maximum RAM allocated during each phase of the calculation         |
 *============================================================================*
 |                            Wannierise:           27.77 Mb                  |
 |                          plot_wannier:           27.77 Mb                  |
 *----------------------------------------------------------------------------*
  
 Starting a new Wannier90 calculation ...


 Reading overlaps from water.mmn    :  Created on 25Jun2022 at  2:13:38

 Reading projections from water.amn :  Created on 25Jun2022 at  2:12:43

 Time to read overlaps          0.714 (sec)

 Writing checkpoint file water.chk... done

 
 *------------------------------- WANNIERISE ---------------------------------*
 +--------------------------------------------------------------------+<-- CONV
 | Iter  Delta Spread     RMS Gradient      Spread (Ang^2)      Time  |<-- CONV
 +--------------------------------------------------------------------+<-- CONV
 
 ------------------------------------------------------------------------------
 Initial State
  WF centre and spread    1  (  0.341049,  6.260322,  0.282588 )     0.57778158
  WF centre and spread    2  (  0.379183,  5.779099, -0.215516 )     0.49199148
  WF centre and spread    3  ( -0.080723,  6.259215, -0.136243 )     0.57320058
  WF centre and spread    4  ( -0.146122,  5.783515,  0.332009 )     0.47939925
  WF centre and spread    5  (  3.211318,  0.199566,  6.275380 )     0.58052472
  WF centre and spread    6  (  3.253976, -0.260509,  5.772980 )     0.49847198
  WF centre and spread    7  (  2.773164,  0.203320,  5.860788 )     0.58233689
  WF centre and spread    8  (  2.729815, -0.285897,  6.331091 )     0.48341119
  WF centre and spread    9  (  6.236004,  3.259986,  0.330848 )     0.59661693
  WF centre and spread   10  (  6.221561,  2.860447, -0.094581 )     0.59109696
  WF centre and spread   11  (  5.748941,  3.346682, -0.125870 )     0.49478011
  WF centre and spread   12  (  5.768539,  2.763221,  0.373637 )     0.51661531
  WF centre and spread   13  (  3.364916,  3.289314,  6.268469 )     0.47766027
  WF centre and spread   14  (  3.369437,  2.726330,  5.753043 )     0.50168370
  WF centre and spread   15  (  2.892870,  3.227739,  5.774390 )     0.57946185
  WF centre and spread   16  (  2.888954,  2.818791,  6.205093 )     0.58822575
  WF centre and spread   17  (  6.273906,  6.209372,  3.148648 )     0.47421236
  WF centre and spread   18  (  6.310394,  5.670981,  2.611810 )     0.50254559
  WF centre and spread   19  (  5.822319,  6.132324,  2.660417 )     0.58746924
  WF centre and spread   20  (  5.821068,  5.717929,  3.071752 )     0.58764702
  WF centre and spread   21  (  3.279673,  0.291516,  3.261716 )     0.59606897
  WF centre and spread   22  (  3.289390, -0.114473,  2.830142 )     0.58556700
  WF centre and spread   23  (  2.788277,  0.344764,  2.770224 )     0.52070313
  WF centre and spread   24  (  2.803956, -0.201251,  3.300784 )     0.49817177
  WF centre and spread   25  (  6.136300,  3.220401,  3.257337 )     0.58916346
  WF centre and spread   26  (  6.172395,  2.733768,  2.804814 )     0.48702154
  WF centre and spread   27  (  5.718716,  3.240838,  2.840813 )     0.59068821
  WF centre and spread   28  (  5.638118,  2.782072,  3.338171 )     0.50517235
  WF centre and spread   29  (  3.251522,  3.110973,  3.186318 )     0.59469869
  WF centre and spread   30  (  3.322239,  2.665641,  2.685096 )     0.49808037
  WF centre and spread   31  (  2.840220,  3.130418,  2.772360 )     0.59142661
  WF centre and spread   32  (  2.777043,  2.628889,  3.225405 )     0.50046746
  WF centre and spread   33  (  1.567961,  1.650399,  1.714610 )     0.67055908
  WF centre and spread   34  (  1.597168,  1.338141,  1.420943 )     0.63716847
  WF centre and spread   35  (  1.277498,  1.674886,  1.409806 )     0.65802743
  WF centre and spread   36  (  1.301948,  1.397089,  1.705330 )     0.70082431
  WF centre and spread   37  (  4.685185,  1.547899,  1.569812 )     0.65799982
  WF centre and spread   38  (  4.701712,  1.256201,  1.259810 )     0.62064502
  WF centre and spread   39  (  4.396292,  1.559095,  1.310812 )     0.64268646
  WF centre and spread   40  (  4.399227,  1.244033,  1.606407 )     0.61926750
  WF centre and spread   41  (  1.714551,  4.675215,  1.665937 )     0.65727036
  WF centre and spread   42  (  1.738109,  4.361349,  1.379323 )     0.62887149
  WF centre and spread   43  (  1.422238,  4.647341,  1.397098 )     0.64875919
  WF centre and spread   44  (  1.433428,  4.353661,  1.725533 )     0.61703202
  WF centre and spread   45  (  4.692564,  4.784391,  1.607565 )     0.63235344
  WF centre and spread   46  (  4.681633,  4.484295,  1.309969 )     0.67364661
  WF centre and spread   47  (  4.404692,  4.731425,  1.309512 )     0.67502882
  WF centre and spread   48  (  4.388030,  4.432827,  1.606804 )     0.63631596
  WF centre and spread   49  (  1.607313,  1.637327,  4.719630 )     0.62261667
  WF centre and spread   50  (  1.548807,  1.353141,  4.404518 )     0.66568097
  WF centre and spread   51  (  1.290362,  1.627785,  4.429898 )     0.66727089
  WF centre and spread   52  (  1.262083,  1.321290,  4.720686 )     0.62642953
  WF centre and spread   53  (  4.799041,  1.493039,  4.745769 )     0.68295818
  WF centre and spread   54  (  4.819587,  1.196320,  4.444453 )     0.63731731
  WF centre and spread   55  (  4.539031,  1.519798,  4.474831 )     0.67860315
  WF centre and spread   56  (  4.483056,  1.203120,  4.769464 )     0.63401342
  WF centre and spread   57  (  1.778263,  4.601975,  4.710149 )     0.65982739
  WF centre and spread   58  (  1.795263,  4.320614,  4.403761 )     0.62954535
  WF centre and spread   59  (  1.506462,  4.634544,  4.443099 )     0.66217605
  WF centre and spread   60  (  1.472660,  4.310428,  4.733812 )     0.62320113
  WF centre and spread   61  (  4.667327,  4.755664,  4.824402 )     0.63979233
  WF centre and spread   62  (  4.737876,  4.494314,  4.441565 )     0.59755914
  WF centre and spread   63  (  4.372205,  4.818617,  4.502500 )     0.61360909
  WF centre and spread   64  (  4.383989,  4.440906,  4.760267 )     0.62353249
  Sum of centres and spreads (218.663975,191.662432,194.281987 )    37.96295138
 
      0     0.380E+02     0.0000000000       37.9630025843       0.00  <-- CONV
        O_D=      0.0002590 O_OD=      8.3471451 O_TOT=     37.9630026 <-- SPRD
 ------------------------------------------------------------------------------
 Cycle:      1
  WF centre and spread    1  (  0.341675,  6.260646,  0.282823 )     0.57486168
  WF centre and spread    2  (  0.379088,  5.778105, -0.217059 )     0.48713756
  WF centre and spread    3  ( -0.080600,  6.259477, -0.135967 )     0.57115742
  WF centre and spread    4  ( -0.147006,  5.782889,  0.332312 )     0.47386643
  WF centre and spread    5  (  3.211613,  0.199875,  6.275527 )     0.57718198
  WF centre and spread    6  (  3.253903, -0.260062,  5.772086 )     0.49006609
  WF centre and spread    7  (  2.772824,  0.203980,  5.861065 )     0.57909152
  WF centre and spread    8  (  2.729516, -0.286837,  6.331691 )     0.47745268
  WF centre and spread    9  (  6.236514,  3.259712,  0.331290 )     0.59388861
  WF centre and spread   10  (  6.221902,  2.860939, -0.095337 )     0.58795368
  WF centre and spread   11  (  5.748165,  3.347711, -0.125910 )     0.48882683
  WF centre and spread   12  (  5.768441,  2.761960,  0.373439 )     0.51064024
  WF centre and spread   13  (  3.365131,  3.289607,  6.269049 )     0.47257694
  WF centre and spread   14  (  3.370160,  2.725058,  5.753326 )     0.49684252
  WF centre and spread   15  (  2.892776,  3.227786,  5.773707 )     0.57693496
  WF centre and spread   16  (  2.888649,  2.819280,  6.205181 )     0.58749948
  WF centre and spread   17  (  6.273930,  6.210384,  3.150272 )     0.46898663
  WF centre and spread   18  (  6.311603,  5.670570,  2.611797 )     0.49670193
  WF centre and spread   19  (  5.821906,  6.132382,  2.660198 )     0.58351575
  WF centre and spread   20  (  5.820921,  5.717742,  3.071884 )     0.58429111
  WF centre and spread   21  (  3.279816,  0.292071,  3.262244 )     0.59240647
  WF centre and spread   22  (  3.289677, -0.114256,  2.830117 )     0.58309268
  WF centre and spread   23  (  2.787140,  0.344645,  2.769203 )     0.51478157
  WF centre and spread   24  (  2.803641, -0.202534,  3.300662 )     0.49187204
  WF centre and spread   25  (  6.136816,  3.220671,  3.257337 )     0.58662890
  WF centre and spread   26  (  6.172448,  2.732162,  2.804434 )     0.48133692
  WF centre and spread   27  (  5.718999,  3.241320,  2.840457 )     0.58841237
  WF centre and spread   28  (  5.636961,  2.782976,  3.338914 )     0.49969918
  WF centre and spread   29  (  3.251921,  3.111251,  3.186930 )     0.59093392
  WF centre and spread   30  (  3.322702,  2.665989,  2.684003 )     0.49280937
  WF centre and spread   31  (  2.840214,  3.131024,  2.772722 )     0.58827907
  WF centre and spread   32  (  2.776571,  2.627973,  3.225409 )     0.49374741
  WF centre and spread   33  (  1.568407,  1.650930,  1.714490 )     0.66677542
  WF centre and spread   34  (  1.597191,  1.337958,  1.421043 )     0.63150551
  WF centre and spread   35  (  1.277962,  1.675120,  1.409193 )     0.65085324
  WF centre and spread   36  (  1.301446,  1.397334,  1.705416 )     0.69675538
  WF centre and spread   37  (  4.685878,  1.547633,  1.570066 )     0.65506746
  WF centre and spread   38  (  4.701250,  1.256302,  1.259354 )     0.61543575
  WF centre and spread   39  (  4.395402,  1.559305,  1.311060 )     0.64007086
  WF centre and spread   40  (  4.399905,  1.243574,  1.606760 )     0.61367075
  WF centre and spread   41  (  1.714847,  4.676080,  1.665581 )     0.65462605
  WF centre and spread   42  (  1.738172,  4.361236,  1.379275 )     0.62471248
  WF centre and spread   43  (  1.420857,  4.646469,  1.396415 )     0.64572302
  WF centre and spread   44  (  1.434443,  4.353148,  1.726454 )     0.61283023
  WF centre and spread   45  (  4.691471,  4.784706,  1.607636 )     0.62499044
  WF centre and spread   46  (  4.682443,  4.484259,  1.310235 )     0.67080405
  WF centre and spread   47  (  4.403946,  4.731244,  1.309521 )     0.67168381
  WF centre and spread   48  (  4.388366,  4.432189,  1.607409 )     0.63167572
  WF centre and spread   49  (  1.607771,  1.636666,  4.719878 )     0.61765093
  WF centre and spread   50  (  1.548557,  1.352684,  4.403867 )     0.66289284
  WF centre and spread   51  (  1.289680,  1.628713,  4.430774 )     0.66413492
  WF centre and spread   52  (  1.262357,  1.321706,  4.720843 )     0.62049298
  WF centre and spread   53  (  4.799594,  1.492082,  4.746412 )     0.67868513
  WF centre and spread   54  (  4.819559,  1.195925,  4.444451 )     0.63178593
  WF centre and spread   55  (  4.539134,  1.520245,  4.474442 )     0.67565428
  WF centre and spread   56  (  4.482801,  1.202914,  4.769113 )     0.62780114
  WF centre and spread   57  (  1.778800,  4.601210,  4.710777 )     0.65617209
  WF centre and spread   58  (  1.794686,  4.320564,  4.403577 )     0.62492074
  WF centre and spread   59  (  1.506059,  4.635097,  4.442947 )     0.65964763
  WF centre and spread   60  (  1.472247,  4.309997,  4.733529 )     0.61947861
  WF centre and spread   61  (  4.667028,  4.755200,  4.826207 )     0.63745072
  WF centre and spread   62  (  4.739800,  4.496163,  4.439432 )     0.59249138
  WF centre and spread   63  (  4.372290,  4.819249,  4.503262 )     0.61030227
  WF centre and spread   64  (  4.382839,  4.437791,  4.758538 )     0.61969158
  Sum of centres and spreads (218.663203,191.658190,194.281757 )    37.68990730
 
      1    -0.273E+00     0.6694223536       37.6899585032       0.01  <-- CONV
        O_D=      0.0012378 O_OD=      8.0731222 O_TOT=     37.6899585 <-- SPRD
 Delta: O_D=  0.9788251E-03 O_OD= -0.2740229E+00 O_TOT= -0.2730441E+00 <-- DLTA
 ------------------------------------------------------------------------------
 Cycle:      2
  WF centre and spread    1  (  0.342125,  6.260824,  0.283051 )     0.57406538
  WF centre and spread    2  (  0.378812,  5.777800, -0.217641 )     0.48607993
  WF centre and spread    3  ( -0.080540,  6.259498, -0.135719 )     0.57119507
  WF centre and spread    4  ( -0.147268,  5.782754,  0.332255 )     0.47244620
  WF centre and spread    5  (  3.211810,  0.199894,  6.275594 )     0.57646707
  WF centre and spread    6  (  3.253745, -0.259763,  5.771605 )     0.48751157
  WF centre and spread    7  (  2.772559,  0.204281,  5.861306 )     0.57860290
  WF centre and spread    8  (  2.729586, -0.287281,  6.331840 )     0.47574097
  WF centre and spread    9  (  6.236801,  3.259504,  0.331628 )     0.59315628
  WF centre and spread   10  (  6.222007,  2.861237, -0.095887 )     0.58705659
  WF centre and spread   11  (  5.747797,  3.348167, -0.125592 )     0.48689152
  WF centre and spread   12  (  5.768503,  2.761331,  0.373255 )     0.50866952
  WF centre and spread   13  (  3.365133,  3.289646,  6.269180 )     0.47122973
  WF centre and spread   14  (  3.370439,  2.724401,  5.753699 )     0.49540569
  WF centre and spread   15  (  2.892787,  3.227855,  5.773204 )     0.57624291
  WF centre and spread   16  (  2.888475,  2.819625,  6.205262 )     0.58778111
  WF centre and spread   17  (  6.273621,  6.210716,  3.150837 )     0.46787399
  WF centre and spread   18  (  6.312219,  5.670497,  2.611873 )     0.49471055
  WF centre and spread   19  (  5.821688,  6.132409,  2.659942 )     0.58232973
  WF centre and spread   20  (  5.820896,  5.717599,  3.071858 )     0.58352321
  WF centre and spread   21  (  3.279903,  0.292479,  3.262675 )     0.59127543
  WF centre and spread   22  (  3.289786, -0.114048,  2.830071 )     0.58263808
  WF centre and spread   23  (  2.786721,  0.344499,  2.768931 )     0.51324043
  WF centre and spread   24  (  2.803645, -0.203119,  3.300334 )     0.49009087
  WF centre and spread   25  (  6.137202,  3.220739,  3.257329 )     0.58584793
  WF centre and spread   26  (  6.172314,  2.731266,  2.804358 )     0.47923506
  WF centre and spread   27  (  5.719212,  3.241577,  2.840207 )     0.58813397
  WF centre and spread   28  (  5.636360,  2.783673,  3.339255 )     0.49799991
  WF centre and spread   29  (  3.252174,  3.111328,  3.187400 )     0.58961590
  WF centre and spread   30  (  3.322794,  2.666347,  2.683481 )     0.49129345
  WF centre and spread   31  (  2.840181,  3.131305,  2.772991 )     0.58748224
  WF centre and spread   32  (  2.776380,  2.627404,  3.225172 )     0.49146944
  WF centre and spread   33  (  1.568707,  1.651254,  1.714554 )     0.66545724
  WF centre and spread   34  (  1.597218,  1.337693,  1.421157 )     0.63045588
  WF centre and spread   35  (  1.278135,  1.675285,  1.408773 )     0.64947179
  WF centre and spread   36  (  1.301020,  1.397375,  1.705558 )     0.69492507
  WF centre and spread   37  (  4.686347,  1.547578,  1.570200 )     0.65413383
  WF centre and spread   38  (  4.701017,  1.256338,  1.258938 )     0.61443050
  WF centre and spread   39  (  4.394781,  1.559551,  1.311202 )     0.63881224
  WF centre and spread   40  (  4.400302,  1.243209,  1.607067 )     0.61267139
  WF centre and spread   41  (  1.715091,  4.676834,  1.665364 )     0.65329370
  WF centre and spread   42  (  1.738221,  4.361156,  1.379222 )     0.62414094
  WF centre and spread   43  (  1.419913,  4.645972,  1.395953 )     0.64428213
  WF centre and spread   44  (  1.435098,  4.352864,  1.727104 )     0.61212665
  WF centre and spread   45  (  4.690982,  4.785069,  1.607757 )     0.62345809
  WF centre and spread   46  (  4.683045,  4.484244,  1.310210 )     0.66947612
  WF centre and spread   47  (  4.403395,  4.731187,  1.309347 )     0.67010591
  WF centre and spread   48  (  4.388619,  4.431711,  1.607665 )     0.63107072
  WF centre and spread   49  (  1.608217,  1.636243,  4.720036 )     0.61678466
  WF centre and spread   50  (  1.548432,  1.352371,  4.403278 )     0.66139357
  WF centre and spread   51  (  1.289208,  1.629385,  4.431184 )     0.66257724
  WF centre and spread   52  (  1.262454,  1.321810,  4.721009 )     0.61925209
  WF centre and spread   53  (  4.800019,  1.491606,  4.746889 )     0.67698556
  WF centre and spread   54  (  4.819470,  1.195594,  4.444402 )     0.63048332
  WF centre and spread   55  (  4.539187,  1.520724,  4.474164 )     0.67446651
  WF centre and spread   56  (  4.482493,  1.202784,  4.768911 )     0.62651262
  WF centre and spread   57  (  1.779277,  4.600797,  4.711289 )     0.65437824
  WF centre and spread   58  (  1.794415,  4.320478,  4.403357 )     0.62410614
  WF centre and spread   59  (  1.505834,  4.635650,  4.442887 )     0.65859352
  WF centre and spread   60  (  1.472086,  4.309782,  4.733357 )     0.61896526
  WF centre and spread   61  (  4.666871,  4.755009,  4.827636 )     0.63602085
  WF centre and spread   62  (  4.741010,  4.497512,  4.438165 )     0.59163643
  WF centre and spread   63  (  4.372258,  4.819782,  4.503815 )     0.60991236
  WF centre and spread   64  (  4.382022,  4.435736,  4.757515 )     0.61779291
  Sum of centres and spreads (218.663012,191.657026,194.281717 )    37.61347609
 
      2    -0.764E-01     0.5275443679       37.6135272967       0.03  <-- CONV
        O_D=      0.0025159 O_OD=      7.9954130 O_TOT=     37.6135273 <-- SPRD
 Delta: O_D=  0.1278070E-02 O_OD= -0.7770928E-01 O_TOT= -0.7643121E-01 <-- DLTA
 ------------------------------------------------------------------------------
 Cycle:      3
  WF centre and spread    1  (  0.342459,  6.260934,  0.283241 )     0.57373601
  WF centre and spread    2  (  0.378538,  5.777682, -0.217960 )     0.48574706
  WF centre and spread    3  ( -0.080489,  6.259461, -0.135515 )     0.57155318
  WF centre and spread    4  ( -0.147378,  5.782728,  0.332130 )     0.47193314
  WF centre and spread    5  (  3.211951,  0.199844,  6.275631 )     0.57635889
  WF centre and spread    6  (  3.253607, -0.259544,  5.771279 )     0.48639917
  WF centre and spread    7  (  2.772368,  0.204448,  5.861512 )     0.57866249
  WF centre and spread    8  (  2.729709, -0.287561,  6.331886 )     0.47498621
  WF centre and spread    9  (  6.236972,  3.259345,  0.331869 )     0.59295434
  WF centre and spread   10  (  6.222032,  2.861466, -0.096303 )     0.58679159
  WF centre and spread   11  (  5.747570,  3.348452, -0.125243 )     0.48607009
  WF centre and spread   12  (  5.768583,  2.760933,  0.373084 )     0.50771326
  WF centre and spread   13  (  3.365100,  3.289635,  6.269204 )     0.47068909
  WF centre and spread   14  (  3.370584,  2.723970,  5.754034 )     0.49472930
  WF centre and spread   15  (  2.892822,  3.227915,  5.772825 )     0.57597827
  WF centre and spread   16  (  2.888368,  2.819902,  6.205308 )     0.58817269
  WF centre and spread   17  (  6.273290,  6.210860,  3.151104 )     0.46763315
  WF centre and spread   18  (  6.312636,  5.670506,  2.611958 )     0.49368389
  WF centre and spread   19  (  5.821566,  6.132414,  2.659744 )     0.58192554
  WF centre and spread   20  (  5.820919,  5.717499,  3.071792 )     0.58341803
  WF centre and spread   21  (  3.279949,  0.292779,  3.263013 )     0.59078071
  WF centre and spread   22  (  3.289830, -0.113860,  2.830039 )     0.58267789
  WF centre and spread   23  (  2.786494,  0.344343,  2.768849 )     0.51258388
  WF centre and spread   24  (  2.803712, -0.203476,  3.300023 )     0.48943113
  WF centre and spread   25  (  6.137487,  3.220741,  3.257307 )     0.58558100
  WF centre and spread   26  (  6.172166,  2.730652,  2.804355 )     0.47818614
  WF centre and spread   27  (  5.719394,  3.241722,  2.840026 )     0.58818822
  WF centre and spread   28  (  5.635977,  2.784216,  3.339463 )     0.49719648
  WF centre and spread   29  (  3.252337,  3.111332,  3.187753 )     0.58908198
  WF centre and spread   30  (  3.322796,  2.666653,  2.683146 )     0.49062517
  WF centre and spread   31  (  2.840161,  3.131463,  2.773213 )     0.58735800
  WF centre and spread   32  (  2.776270,  2.626998,  3.224918 )     0.49041660
  WF centre and spread   33  (  1.568929,  1.651481,  1.714603 )     0.66492639
  WF centre and spread   34  (  1.597165,  1.337514,  1.421292 )     0.63029739
  WF centre and spread   35  (  1.278311,  1.675332,  1.408492 )     0.64927268
  WF centre and spread   36  (  1.300689,  1.397387,  1.705649 )     0.69403658
  WF centre and spread   37  (  4.686696,  1.547546,  1.570282 )     0.65377303
  WF centre and spread   38  (  4.700795,  1.256398,  1.258639 )     0.61431871
  WF centre and spread   39  (  4.394319,  1.559722,  1.311311 )     0.63813418
  WF centre and spread   40  (  4.400653,  1.242945,  1.607259 )     0.61259159
  WF centre and spread   41  (  1.715265,  4.677405,  1.665190 )     0.65257985
  WF centre and spread   42  (  1.738198,  4.361128,  1.379238 )     0.62424967
  WF centre and spread   43  (  1.419207,  4.645573,  1.395618 )     0.64352784
  WF centre and spread   44  (  1.435656,  4.352698,  1.727552 )     0.61209652
  WF centre and spread   45  (  4.690614,  4.785335,  1.607844 )     0.62320578
  WF centre and spread   46  (  4.683498,  4.484254,  1.310173 )     0.66884828
  WF centre and spread   47  (  4.402991,  4.731141,  1.309221 )     0.66929245
  WF centre and spread   48  (  4.388890,  4.431411,  1.607778 )     0.63112720
  WF centre and spread   49  (  1.608527,  1.635861,  4.720122 )     0.61665616
  WF centre and spread   50  (  1.548344,  1.352150,  4.402823 )     0.66065036
  WF centre and spread   51  (  1.288855,  1.629904,  4.431489 )     0.66177040
  WF centre and spread   52  (  1.262557,  1.321894,  4.721116 )     0.61903572
  WF centre and spread   53  (  4.800363,  1.491269,  4.747267 )     0.67617979
  WF centre and spread   54  (  4.819323,  1.195363,  4.444414 )     0.63013895
  WF centre and spread   55  (  4.539240,  1.521124,  4.473961 )     0.67387347
  WF centre and spread   56  (  4.482275,  1.202744,  4.768702 )     0.62628648
  WF centre and spread   57  (  1.779659,  4.600483,  4.711689 )     0.65345889
  WF centre and spread   58  (  1.794179,  4.320432,  4.403217 )     0.62404125
  WF centre and spread   59  (  1.505688,  4.636085,  4.442864 )     0.65808323
  WF centre and spread   60  (  1.472048,  4.309658,  4.733163 )     0.61901059
  WF centre and spread   61  (  4.666747,  4.754884,  4.828740 )     0.63518086
  WF centre and spread   62  (  4.741850,  4.498646,  4.437278 )     0.59153282
  WF centre and spread   63  (  4.372259,  4.820168,  4.504287 )     0.61004113
  WF centre and spread   64  (  4.381383,  4.434192,  4.756740 )     0.61670136
  Sum of centres and spreads (218.662951,191.656581,194.281700 )    37.58616219
 
      3    -0.273E-01     0.3827721453       37.5862133956       0.04  <-- CONV
        O_D=      0.0006634 O_OD=      7.9699516 O_TOT=     37.5862134 <-- SPRD
 Delta: O_D= -0.1852529E-02 O_OD= -0.2546137E-01 O_TOT= -0.2731390E-01 <-- DLTA
 ------------------------------------------------------------------------------
 Cycle:      4
  WF centre and spread    1  (  0.342733,  6.261017,  0.283405 )     0.57354928
  WF centre and spread    2  (  0.378288,  5.777621, -0.218204 )     0.48556029
  WF centre and spread    3  ( -0.080435,  6.259413, -0.135332 )     0.57199435
  WF centre and spread    4  ( -0.147459,  5.782725,  0.332008 )     0.47169309
  WF centre and spread    5  (  3.212064,  0.199781,  6.275653 )     0.57644974
  WF centre and spread    6  (  3.253502, -0.259361,  5.771005 )     0.48581179
  WF centre and spread    7  (  2.772217,  0.204567,  5.861709 )     0.57884368
  WF centre and spread    8  (  2.729827, -0.287781,  6.331918 )     0.47452915
  WF centre and spread    9  (  6.237096,  3.259202,  0.332052 )     0.59295385
  WF centre and spread   10  (  6.222031,  2.861672, -0.096651 )     0.58679109
  WF centre and spread   11  (  5.747394,  3.348691, -0.124912 )     0.48563537
  WF centre and spread   12  (  5.768655,  2.760611,  0.372930 )     0.50714408
  WF centre and spread   13  (  3.365062,  3.289627,  6.269210 )     0.47038175
  WF centre and spread   14  (  3.370689,  2.723619,  5.754334 )     0.49429862
  WF centre and spread   15  (  2.892858,  3.227973,  5.772510 )     0.57588370
  WF centre and spread   16  (  2.888287,  2.820159,  6.205329 )     0.58855279
  WF centre and spread   17  (  6.272972,  6.210951,  3.151287 )     0.46760984
  WF centre and spread   18  (  6.312986,  5.670523,  2.612033 )     0.49302287
  WF centre and spread   19  (  5.821483,  6.132400,  2.659590 )     0.58182827
  WF centre and spread   20  (  5.820958,  5.717424,  3.071709 )     0.58355879
  WF centre and spread   21  (  3.279981,  0.293021,  3.263296 )     0.59053106
  WF centre and spread   22  (  3.289852, -0.113676,  2.830023 )     0.58291442
  WF centre and spread   23  (  2.786325,  0.344198,  2.768810 )     0.51216955
  WF centre and spread   24  (  2.803792, -0.203760,  3.299747 )     0.48916859
  WF centre and spread   25  (  6.137715,  3.220720,  3.257273 )     0.58553837
  WF centre and spread   26  (  6.172031,  2.730150,  2.804366 )     0.47756051
  WF centre and spread   27  (  5.719569,  3.241821,  2.839886 )     0.58833172
  WF centre and spread   28  (  5.635675,  2.784677,  3.339632 )     0.49674512
  WF centre and spread   29  (  3.252451,  3.111306,  3.188043 )     0.58884629
  WF centre and spread   30  (  3.322787,  2.666923,  2.682867 )     0.49023886
  WF centre and spread   31  (  2.840153,  3.131575,  2.773422 )     0.58749392
  WF centre and spread   32  (  2.776181,  2.626666,  3.224682 )     0.48982651
  WF centre and spread   33  (  1.569110,  1.651659,  1.714613 )     0.66473597
  WF centre and spread   34  (  1.597050,  1.337398,  1.421446 )     0.63038614
  WF centre and spread   35  (  1.278528,  1.675298,  1.408281 )     0.64936015
  WF centre and spread   36  (  1.300407,  1.397401,  1.705700 )     0.69369987
  WF centre and spread   37  (  4.686984,  1.547500,  1.570332 )     0.65367833
  WF centre and spread   38  (  4.700546,  1.256491,  1.258412 )     0.61446671
  WF centre and spread   39  (  4.393913,  1.559854,  1.311405 )     0.63784374
  WF centre and spread   40  (  4.401018,  1.242737,  1.607375 )     0.61272615
  WF centre and spread   41  (  1.715409,  4.677882,  1.665030 )     0.65226805
  WF centre and spread   42  (  1.738123,  4.361135,  1.379313 )     0.62453253
  WF centre and spread   43  (  1.418595,  4.645199,  1.395334 )     0.64316282
  WF centre and spread   44  (  1.436203,  4.352584,  1.727901 )     0.61225012
  WF centre and spread   45  (  4.690248,  4.785530,  1.607902 )     0.62326655
  WF centre and spread   46  (  4.683885,  4.484283,  1.310156 )     0.66861650
  WF centre and spread   47  (  4.402653,  4.731094,  1.309140 )     0.66897522
  WF centre and spread   48  (  4.389195,  4.431215,  1.607830 )     0.63131352
  WF centre and spread   49  (  1.608752,  1.635466,  4.720168 )     0.61671222
  WF centre and spread   50  (  1.548263,  1.351976,  4.402445 )     0.66036680
  WF centre and spread   51  (  1.288559,  1.630357,  4.431778 )     0.66142817
  WF centre and spread   52  (  1.262690,  1.322006,  4.721178 )     0.61909599
  WF centre and spread   53  (  4.800673,  1.490969,  4.747600 )     0.67585882
  WF centre and spread   54  (  4.819133,  1.195192,  4.444478 )     0.63012860
  WF centre and spread   55  (  4.539304,  1.521476,  4.473799 )     0.67363226
  WF centre and spread   56  (  4.482119,  1.202771,  4.768461 )     0.62635382
  WF centre and spread   57  (  1.780000,  4.600202,  4.712044 )     0.65307041
  WF centre and spread   58  (  1.793923,  4.320418,  4.403133 )     0.62419154
  WF centre and spread   59  (  1.505578,  4.636447,  4.442863 )     0.65786791
  WF centre and spread   60  (  1.472072,  4.309575,  4.732928 )     0.61918334
  WF centre and spread   61  (  4.666633,  4.754787,  4.829698 )     0.63476136
  WF centre and spread   62  (  4.742531,  4.499722,  4.436540 )     0.59153553
  WF centre and spread   63  (  4.372299,  4.820471,  4.504743 )     0.61033139
  WF centre and spread   64  (  4.380815,  4.432852,  4.756040 )     0.61598293
  Sum of centres and spreads (218.662933,191.656401,194.281692 )    37.57724076
 
      4    -0.892E-02     0.2169721980       37.5772919682       0.05  <-- CONV
        O_D=      0.0000482 O_OD=      7.9616453 O_TOT=     37.5772920 <-- SPRD
 Delta: O_D= -0.6151408E-03 O_OD= -0.8306287E-02 O_TOT= -0.8921427E-02 <-- DLTA
 ------------------------------------------------------------------------------
 Cycle:      5
  WF centre and spread    1  (  0.343257,  6.261176,  0.283723 )     0.57327110
  WF centre and spread    2  (  0.377798,  5.777532, -0.218666 )     0.48523278
  WF centre and spread    3  ( -0.080320,  6.259309, -0.134970 )     0.57292544
  WF centre and spread    4  ( -0.147617,  5.782730,  0.331767 )     0.47135081
  WF centre and spread    5  (  3.212278,  0.199641,  6.275685 )     0.57674296
  WF centre and spread    6  (  3.253313, -0.259007,  5.770473 )     0.48499116
  WF centre and spread    7  (  2.771934,  0.204786,  5.862110 )     0.57924506
  WF centre and spread    8  (  2.730063, -0.288197,  6.331981 )     0.47377819
  WF centre and spread    9  (  6.237321,  3.258920,  0.332388 )     0.59308178
  WF centre and spread   10  (  6.222007,  2.862084, -0.097322 )     0.58697076
  WF centre and spread   11  (  5.747064,  3.349159, -0.124250 )     0.48499333
  WF centre and spread   12  (  5.768798,  2.759992,  0.372623 )     0.50631392
  WF centre and spread   13  (  3.364979,  3.289616,  6.269216 )     0.46994223
  WF centre and spread   14  (  3.370879,  2.722947,  5.754926 )     0.49357683
  WF centre and spread   15  (  2.892933,  3.228090,  5.771903 )     0.57578214
  WF centre and spread   16  (  2.888135,  2.820678,  6.205353 )     0.58930113
  WF centre and spread   17  (  6.272334,  6.211111,  3.151617 )     0.46762882
  WF centre and spread   18  (  6.313664,  5.670561,  2.612179 )     0.49195083
  WF centre and spread   19  (  5.821337,  6.132360,  2.659307 )     0.58182463
  WF centre and spread   20  (  5.821051,  5.717286,  3.071525 )     0.58399757
  WF centre and spread   21  (  3.280039,  0.293471,  3.263842 )     0.59017072
  WF centre and spread   22  (  3.289886, -0.113296,  2.830003 )     0.58354763
  WF centre and spread   23  (  2.786014,  0.343910,  2.768751 )     0.51149440
  WF centre and spread   24  (  2.803962, -0.204303,  3.299211 )     0.48886850
  WF centre and spread   25  (  6.138147,  3.220655,  3.257194 )     0.58562359
  WF centre and spread   26  (  6.171763,  2.729191,  2.804395 )     0.47654966
  WF centre and spread   27  (  5.719922,  3.242001,  2.839625 )     0.58867565
  WF centre and spread   28  (  5.635111,  2.785564,  3.339954 )     0.49610900
  WF centre and spread   29  (  3.252649,  3.111229,  3.188595 )     0.58856090
  WF centre and spread   30  (  3.322766,  2.667450,  2.682327 )     0.48966209
  WF centre and spread   31  (  2.840145,  3.131780,  2.773845 )     0.58795671
  WF centre and spread   32  (  2.776010,  2.626038,  3.224209 )     0.48894992
  WF centre and spread   33  (  1.569461,  1.651999,  1.714607 )     0.66446667
  WF centre and spread   34  (  1.596766,  1.337202,  1.421776 )     0.63069888
  WF centre and spread   35  (  1.279016,  1.675166,  1.407891 )     0.64966953
  WF centre and spread   36  (  1.299853,  1.397436,  1.705780 )     0.69336247
  WF centre and spread   37  (  4.687540,  1.547393,  1.570408 )     0.65353856
  WF centre and spread   38  (  4.700003,  1.256715,  1.257991 )     0.61489467
  WF centre and spread   39  (  4.393114,  1.560092,  1.311599 )     0.63746380
  WF centre and spread   40  (  4.401793,  1.242349,  1.607561 )     0.61307503
  WF centre and spread   41  (  1.715680,  4.678809,  1.664695 )     0.65184881
  WF centre and spread   42  (  1.737929,  4.361176,  1.379515 )     0.62516390
  WF centre and spread   43  (  1.417389,  4.644433,  1.394787 )     0.64262722
  WF centre and spread   44  (  1.437335,  4.352383,  1.728558 )     0.61262765
  WF centre and spread   45  (  4.689477,  4.785883,  1.607995 )     0.62354008
  WF centre and spread   46  (  4.684645,  4.484357,  1.310139 )     0.66833408
  WF centre and spread   47  (  4.401999,  4.730994,  1.309007 )     0.66860799
  WF centre and spread   48  (  4.389855,  4.430880,  1.607896 )     0.63172011
  WF centre and spread   49  (  1.609161,  1.634634,  4.720236 )     0.61693180
  WF centre and spread   50  (  1.548097,  1.351650,  4.401712 )     0.66001174
  WF centre and spread   51  (  1.287985,  1.631253,  4.432378 )     0.66095841
  WF centre and spread   52  (  1.262996,  1.322261,  4.721269 )     0.61940231
  WF centre and spread   53  (  4.801290,  1.490355,  4.748253 )     0.67545626
  WF centre and spread   54  (  4.818702,  1.194884,  4.444651 )     0.63033076
  WF centre and spread   55  (  4.539451,  1.522175,  4.473494 )     0.67328558
  WF centre and spread   56  (  4.481837,  1.202884,  4.767935 )     0.62665931
  WF centre and spread   57  (  1.780676,  4.599633,  4.712739 )     0.65261892
  WF centre and spread   58  (  1.793373,  4.320416,  4.402994 )     0.62462002
  WF centre and spread   59  (  1.505378,  4.637149,  4.442880 )     0.65752805
  WF centre and spread   60  (  1.472163,  4.309429,  4.732410 )     0.61959196
  WF centre and spread   61  (  4.666399,  4.754595,  4.831587 )     0.63417624
  WF centre and spread   62  (  4.743839,  4.501931,  4.435111 )     0.59151513
  WF centre and spread   63  (  4.372411,  4.821040,  4.505684 )     0.61100810
  WF centre and spread   64  (  4.379682,  4.430208,  4.754625 )     0.61465675
  Sum of centres and spreads (218.662919,191.656224,194.281683 )    37.56946104
 
      5    -0.778E-02     0.1527258688       37.5695122491       0.06  <-- CONV
        O_D=      0.0002164 O_OD=      7.9536974 O_TOT=     37.5695122 <-- SPRD
 Delta: O_D=  0.1681445E-03 O_OD= -0.7947864E-02 O_TOT= -0.7779719E-02 <-- DLTA
 ------------------------------------------------------------------------------
 Cycle:      6
  WF centre and spread    1  (  0.344246,  6.261477,  0.284326 )     0.57276874
  WF centre and spread    2  (  0.376869,  5.777385, -0.219524 )     0.48471293
  WF centre and spread    3  ( -0.080100,  6.259107, -0.134292 )     0.57463451
  WF centre and spread    4  ( -0.147916,  5.782746,  0.331313 )     0.47082040
  WF centre and spread    5  (  3.212683,  0.199363,  6.275741 )     0.57728622
  WF centre and spread    6  (  3.252962, -0.258345,  5.769468 )     0.48377932
  WF centre and spread    7  (  2.771398,  0.205192,  5.862878 )     0.57994292
  WF centre and spread    8  (  2.730518, -0.288978,  6.332092 )     0.47253697
  WF centre and spread    9  (  6.237743,  3.258384,  0.333009 )     0.59331506
  WF centre and spread   10  (  6.221939,  2.862877, -0.098586 )     0.58728705
  WF centre and spread   11  (  5.746449,  3.350037, -0.122982 )     0.48397527
  WF centre and spread   12  (  5.769069,  2.758828,  0.372032 )     0.50501304
  WF centre and spread   13  (  3.364815,  3.289596,  6.269219 )     0.46927665
  WF centre and spread   14  (  3.371222,  2.721686,  5.756057 )     0.49239546
  WF centre and spread   15  (  2.893082,  3.228311,  5.770751 )     0.57557908
  WF centre and spread   16  (  2.887844,  2.821667,  6.205389 )     0.59061745
  WF centre and spread   17  (  6.271128,  6.211396,  3.152216 )     0.46771029
  WF centre and spread   18  (  6.314938,  5.670646,  2.612470 )     0.49015312
  WF centre and spread   19  (  5.821073,  6.132278,  2.658783 )     0.58183874
  WF centre and spread   20  (  5.821241,  5.717030,  3.071164 )     0.58482515
  WF centre and spread   21  (  3.280139,  0.294296,  3.264881 )     0.58949091
  WF centre and spread   22  (  3.289942, -0.112566,  2.829976 )     0.58474459
  WF centre and spread   23  (  2.785438,  0.343367,  2.768651 )     0.51039170
  WF centre and spread   24  (  2.804295, -0.205316,  3.298200 )     0.48848400
  WF centre and spread   25  (  6.138961,  3.220504,  3.257033 )     0.58576844
  WF centre and spread   26  (  6.171227,  2.727405,  2.804480 )     0.47482739
  WF centre and spread   27  (  5.720596,  3.242332,  2.839135 )     0.58927906
  WF centre and spread   28  (  5.634082,  2.787221,  3.340547 )     0.49519930
  WF centre and spread   29  (  3.253005,  3.111053,  3.189634 )     0.58800186
  WF centre and spread   30  (  3.322723,  2.668440,  2.681320 )     0.48877180
  WF centre and spread   31  (  2.840135,  3.132152,  2.774660 )     0.58882058
  WF centre and spread   32  (  2.775704,  2.624875,  3.223294 )     0.48756241
  WF centre and spread   33  (  1.570131,  1.652644,  1.714587 )     0.66393897
  WF centre and spread   34  (  1.596199,  1.336835,  1.422410 )     0.63132912
  WF centre and spread   35  (  1.279973,  1.674875,  1.407153 )     0.65029639
  WF centre and spread   36  (  1.298793,  1.397509,  1.705917 )     0.69281903
  WF centre and spread   37  (  4.688599,  1.547185,  1.570542 )     0.65322887
  WF centre and spread   38  (  4.698938,  1.257163,  1.257205 )     0.61572669
  WF centre and spread   39  (  4.391586,  1.560538,  1.311986 )     0.63682828
  WF centre and spread   40  (  4.403308,  1.241626,  1.607885 )     0.61372474
  WF centre and spread   41  (  1.716192,  4.680578,  1.664038 )     0.65108723
  WF centre and spread   42  (  1.737535,  4.361273,  1.379929 )     0.62632712
  WF centre and spread   43  (  1.415087,  4.642947,  1.393754 )     0.64169419
  WF centre and spread   44  (  1.439522,  4.352010,  1.729804 )     0.61332142
  WF centre and spread   45  (  4.687977,  4.786537,  1.608163 )     0.62408359
  WF centre and spread   46  (  4.686103,  4.484508,  1.310106 )     0.66787034
  WF centre and spread   47  (  4.400759,  4.730795,  1.308768 )     0.66799548
  WF centre and spread   48  (  4.391142,  4.430257,  1.608013 )     0.63245461
  WF centre and spread   49  (  1.609936,  1.633026,  4.720360 )     0.61738478
  WF centre and spread   50  (  1.547773,  1.351040,  4.400307 )     0.65936536
  WF centre and spread   51  (  1.286900,  1.632966,  4.433547 )     0.66009132
  WF centre and spread   52  (  1.263604,  1.322763,  4.721419 )     0.62005475
  WF centre and spread   53  (  4.802471,  1.489155,  4.749499 )     0.67473687
  WF centre and spread   54  (  4.817845,  1.194315,  4.445005 )     0.63084088
  WF centre and spread   55  (  4.539744,  1.523526,  4.472912 )     0.67260717
  WF centre and spread   56  (  4.481305,  1.203135,  4.766900 )     0.62730904
  WF centre and spread   57  (  1.781966,  4.598523,  4.714059 )     0.65190563
  WF centre and spread   58  (  1.792303,  4.320428,  4.402737 )     0.62543738
  WF centre and spread   59  (  1.505004,  4.638495,  4.442925 )     0.65682719
  WF centre and spread   60  (  1.472350,  4.309160,  4.731394 )     0.62038320
  WF centre and spread   61  (  4.665951,  4.754211,  4.835191 )     0.63309974
  WF centre and spread   62  (  4.746318,  4.506205,  4.432422 )     0.59136506
  WF centre and spread   63  (  4.372626,  4.822110,  4.507504 )     0.61225351
  WF centre and spread   64  (  4.377510,  4.425176,  4.751890 )     0.61211651
  Sum of centres and spreads (218.662899,191.655958,194.281667 )    37.55831488
 
      6    -0.111E-01     0.1984030494       37.5583660834       0.08  <-- CONV
        O_D=      0.0002935 O_OD=      7.9424741 O_TOT=     37.5583661 <-- SPRD
 Delta: O_D=  0.7714380E-04 O_OD= -0.1122331E-01 O_TOT= -0.1114617E-01 <-- DLTA
 ------------------------------------------------------------------------------
 Cycle:      7
  WF centre and spread    1  (  0.344367,  6.261512,  0.284397 )     0.57252025
  WF centre and spread    2  (  0.376750,  5.777370, -0.219630 )     0.48465568
  WF centre and spread    3  ( -0.080063,  6.259076, -0.134201 )     0.57465450
  WF centre and spread    4  ( -0.147952,  5.782752,  0.331253 )     0.47077275
  WF centre and spread    5  (  3.212732,  0.199316,  6.275742 )     0.57719288
  WF centre and spread    6  (  3.252912, -0.258257,  5.769346 )     0.48374445
  WF centre and spread    7  (  2.771330,  0.205246,  5.862992 )     0.57982399
  WF centre and spread    8  (  2.730585, -0.289072,  6.332103 )     0.47244228
  WF centre and spread    9  (  6.237797,  3.258314,  0.333079 )     0.59317367
  WF centre and spread   10  (  6.221917,  2.862990, -0.098750 )     0.58714733
  WF centre and spread   11  (  5.746376,  3.350146, -0.122811 )     0.48391130
  WF centre and spread   12  (  5.769106,  2.758680,  0.371949 )     0.50494006
  WF centre and spread   13  (  3.364792,  3.289593,  6.269215 )     0.46925290
  WF centre and spread   14  (  3.371264,  2.721523,  5.756206 )     0.49231330
  WF centre and spread   15  (  2.893110,  3.228338,  5.770605 )     0.57538157
  WF centre and spread   16  (  2.887802,  2.821808,  6.205390 )     0.59056626
  WF centre and spread   17  (  6.270975,  6.211432,  3.152292 )     0.46768974
  WF centre and spread   18  (  6.315095,  5.670665,  2.612517 )     0.49000245
  WF centre and spread   19  (  5.821043,  6.132261,  2.658724 )     0.58170253
  WF centre and spread   20  (  5.821273,  5.716994,  3.071108 )     0.58477433
  WF centre and spread   21  (  3.280144,  0.294383,  3.265016 )     0.58920967
  WF centre and spread   22  (  3.289951, -0.112461,  2.829979 )     0.58473315
  WF centre and spread   23  (  2.785372,  0.343297,  2.768647 )     0.51031169
  WF centre and spread   24  (  2.804341, -0.205444,  3.298071 )     0.48849954
  WF centre and spread   25  (  6.139069,  3.220472,  3.257005 )     0.58563178
  WF centre and spread   26  (  6.171152,  2.727186,  2.804498 )     0.47467312
  WF centre and spread   27  (  5.720688,  3.242377,  2.839071 )     0.58916686
  WF centre and spread   28  (  5.633959,  2.787423,  3.340621 )     0.49519489
  WF centre and spread   29  (  3.253042,  3.111016,  3.189767 )     0.58780380
  WF centre and spread   30  (  3.322719,  2.668561,  2.681195 )     0.48873374
  WF centre and spread   31  (  2.840134,  3.132202,  2.774776 )     0.58877378
  WF centre and spread   32  (  2.775672,  2.624738,  3.223173 )     0.48748867
  WF centre and spread   33  (  1.570215,  1.652728,  1.714576 )     0.66376626
  WF centre and spread   34  (  1.596115,  1.336785,  1.422501 )     0.63130550
  WF centre and spread   35  (  1.280118,  1.674828,  1.407046 )     0.65026437
  WF centre and spread   36  (  1.298646,  1.397532,  1.705931 )     0.69269598
  WF centre and spread   37  (  4.688746,  1.547150,  1.570547 )     0.65306638
  WF centre and spread   38  (  4.698782,  1.257236,  1.257087 )     0.61572421
  WF centre and spread   39  (  4.391369,  1.560597,  1.312057 )     0.63667335
  WF centre and spread   40  (  4.403535,  1.241519,  1.607930 )     0.61365940
  WF centre and spread   41  (  1.716259,  4.680835,  1.663925 )     0.65092394
  WF centre and spread   42  (  1.737478,  4.361288,  1.379996 )     0.62630187
  WF centre and spread   43  (  1.414755,  4.642722,  1.393613 )     0.64153291
  WF centre and spread   44  (  1.439846,  4.351956,  1.729989 )     0.61325869
  WF centre and spread   45  (  4.687751,  4.786632,  1.608187 )     0.62407464
  WF centre and spread   46  (  4.686307,  4.484543,  1.310108 )     0.66773412
  WF centre and spread   47  (  4.400591,  4.730754,  1.308742 )     0.66787090
  WF centre and spread   48  (  4.391333,  4.430169,  1.608026 )     0.63239882
  WF centre and spread   49  (  1.610053,  1.632792,  4.720379 )     0.61738224
  WF centre and spread   50  (  1.547716,  1.350963,  4.400101 )     0.65919757
  WF centre and spread   51  (  1.286753,  1.633212,  4.433730 )     0.65990244
  WF centre and spread   52  (  1.263693,  1.322833,  4.721434 )     0.62008966
  WF centre and spread   53  (  4.802639,  1.488962,  4.749674 )     0.67453399
  WF centre and spread   54  (  4.817714,  1.194241,  4.445059 )     0.63085772
  WF centre and spread   55  (  4.539794,  1.523728,  4.472838 )     0.67241260
  WF centre and spread   56  (  4.481218,  1.203187,  4.766748 )     0.62730957
  WF centre and spread   57  (  1.782145,  4.598351,  4.714237 )     0.65177404
  WF centre and spread   58  (  1.792144,  4.320435,  4.402690 )     0.62542570
  WF centre and spread   59  (  1.504957,  4.638688,  4.442942 )     0.65662443
  WF centre and spread   60  (  1.472374,  4.309121,  4.731238 )     0.62038070
  WF centre and spread   61  (  4.665866,  4.754146,  4.835714 )     0.63287411
  WF centre and spread   62  (  4.746684,  4.506837,  4.432027 )     0.59114674
  WF centre and spread   63  (  4.372657,  4.822269,  4.507769 )     0.61227798
  WF centre and spread   64  (  4.377193,  4.424448,  4.751480 )     0.61165315
  Sum of centres and spreads (218.662895,191.655927,194.281663 )    37.55197689
 
      7    -0.634E-02     0.1993801200       37.5520280943       0.09  <-- CONV
        O_D=      0.0001820 O_OD=      7.9362477 O_TOT=     37.5520281 <-- SPRD
 Delta: O_D= -0.1115464E-03 O_OD= -0.6226443E-02 O_TOT= -0.6337989E-02 <-- DLTA
 ------------------------------------------------------------------------------
 Cycle:      8
  WF centre and spread    1  (  0.344647,  6.261592,  0.284563 )     0.57208393
  WF centre and spread    2  (  0.376474,  5.777338, -0.219874 )     0.48468714
  WF centre and spread    3  ( -0.079979,  6.259005, -0.133991 )     0.57485328
  WF centre and spread    4  ( -0.148036,  5.782767,  0.331115 )     0.47084150
  WF centre and spread    5  (  3.212848,  0.199208,  6.275745 )     0.57712741
  WF centre and spread    6  (  3.252800, -0.258054,  5.769061 )     0.48385702
  WF centre and spread    7  (  2.771170,  0.205369,  5.863256 )     0.57970450
  WF centre and spread    8  (  2.730739, -0.289291,  6.332128 )     0.47238313
  WF centre and spread    9  (  6.237922,  3.258149,  0.333240 )     0.59300399
  WF centre and spread   10  (  6.221869,  2.863251, -0.099132 )     0.58699776
  WF centre and spread   11  (  5.746209,  3.350399, -0.122411 )     0.48394673
  WF centre and spread   12  (  5.769190,  2.758334,  0.371761 )     0.50498513
  WF centre and spread   13  (  3.364735,  3.289589,  6.269207 )     0.46937999
  WF centre and spread   14  (  3.371360,  2.721144,  5.756550 )     0.49227384
  WF centre and spread   15  (  2.893176,  3.228400,  5.770264 )     0.57507719
  WF centre and spread   16  (  2.887702,  2.822134,  6.205392 )     0.59059512
  WF centre and spread   17  (  6.270619,  6.211517,  3.152465 )     0.46777835
  WF centre and spread   18  (  6.315459,  5.670710,  2.612624 )     0.48984905
  WF centre and spread   19  (  5.820973,  6.132222,  2.658586 )     0.58153461
  WF centre and spread   20  (  5.821347,  5.716909,  3.070978 )     0.58480740
  WF centre and spread   21  (  3.280155,  0.294587,  3.265329 )     0.58872703
  WF centre and spread   22  (  3.289974, -0.112215,  2.829983 )     0.58485738
  WF centre and spread   23  (  2.785219,  0.343139,  2.768634 )     0.51033542
  WF centre and spread   24  (  2.804451, -0.205740,  3.297773 )     0.48869693
  WF centre and spread   25  (  6.139320,  3.220398,  3.256940 )     0.58546863
  WF centre and spread   26  (  6.170977,  2.726681,  2.804542 )     0.47448033
  WF centre and spread   27  (  5.720900,  3.242481,  2.838922 )     0.58905854
  WF centre and spread   28  (  5.633673,  2.787889,  3.340794 )     0.49536365
  WF centre and spread   29  (  3.253132,  3.110930,  3.190077 )     0.58749530
  WF centre and spread   30  (  3.322709,  2.668844,  2.680901 )     0.48882256
  WF centre and spread   31  (  2.840130,  3.132316,  2.775045 )     0.58883719
  WF centre and spread   32  (  2.775597,  2.624420,  3.222892 )     0.48749664
  WF centre and spread   33  (  1.570415,  1.652924,  1.714553 )     0.66352022
  WF centre and spread   34  (  1.595916,  1.336665,  1.422712 )     0.63137621
  WF centre and spread   35  (  1.280457,  1.674715,  1.406797 )     0.65032765
  WF centre and spread   36  (  1.298300,  1.397581,  1.705965 )     0.69254119
  WF centre and spread   37  (  4.689090,  1.547072,  1.570560 )     0.65283835
  WF centre and spread   38  (  4.698418,  1.257405,  1.256810 )     0.61584561
  WF centre and spread   39  (  4.390860,  1.560738,  1.312218 )     0.63643812
  WF centre and spread   40  (  4.404064,  1.241272,  1.608033 )     0.61364175
  WF centre and spread   41  (  1.716415,  4.681439,  1.663665 )     0.65067624
  WF centre and spread   42  (  1.737344,  4.361324,  1.380154 )     0.62637493
  WF centre and spread   43  (  1.413978,  4.642194,  1.393280 )     0.64126541
  WF centre and spread   44  (  1.440603,  4.351829,  1.730423 )     0.61324138
  WF centre and spread   45  (  4.687222,  4.786856,  1.608244 )     0.62418127
  WF centre and spread   46  (  4.686786,  4.484626,  1.310108 )     0.66753696
  WF centre and spread   47  (  4.400194,  4.730662,  1.308677 )     0.66770300
  WF centre and spread   48  (  4.391780,  4.429961,  1.608056 )     0.63239694
  WF centre and spread   49  (  1.610326,  1.632244,  4.720422 )     0.61748787
  WF centre and spread   50  (  1.547583,  1.350779,  4.399615 )     0.65892841
  WF centre and spread   51  (  1.286405,  1.633788,  4.434154 )     0.65960194
  WF centre and spread   52  (  1.263904,  1.322997,  4.721467 )     0.62029034
  WF centre and spread   53  (  4.803031,  1.488518,  4.750083 )     0.67424598
  WF centre and spread   54  (  4.817406,  1.194070,  4.445187 )     0.63102085
  WF centre and spread   55  (  4.539907,  1.524207,  4.472663 )     0.67209625
  WF centre and spread   56  (  4.481014,  1.203308,  4.766391 )     0.62743355
  WF centre and spread   57  (  1.782567,  4.597951,  4.714658 )     0.65158902
  WF centre and spread   58  (  1.791772,  4.320453,  4.402582 )     0.62552017
  WF centre and spread   59  (  1.504846,  4.639143,  4.442980 )     0.65629566
  WF centre and spread   60  (  1.472429,  4.309030,  4.730875 )     0.62049025
  WF centre and spread   61  (  4.665677,  4.753998,  4.836944 )     0.63245724
  WF centre and spread   62  (  4.747540,  4.508317,  4.431109 )     0.59075521
  WF centre and spread   63  (  4.372729,  4.822640,  4.508390 )     0.61243734
  WF centre and spread   64  (  4.376450,  4.422746,  4.750521 )     0.61069788
  Sum of centres and spreads (218.662885,191.655875,194.281655 )    37.54665986
 
      8    -0.532E-02     0.1493816633       37.5467110616       0.10  <-- CONV
        O_D=      0.0000295 O_OD=      7.9310831 O_TOT=     37.5467111 <-- SPRD
 Delta: O_D= -0.1524866E-03 O_OD= -0.5164546E-02 O_TOT= -0.5317033E-02 <-- DLTA
 ------------------------------------------------------------------------------
 Cycle:      9
  WF centre and spread    1  (  0.345283,  6.261772,  0.284942 )     0.57109962
  WF centre and spread    2  (  0.375852,  5.777265, -0.220435 )     0.48484082
  WF centre and spread    3  ( -0.079797,  6.258856, -0.133514 )     0.57539263
  WF centre and spread    4  ( -0.148233,  5.782797,  0.330810 )     0.47109608
  WF centre and spread    5  (  3.213117,  0.198964,  6.275757 )     0.57704863
  WF centre and spread    6  (  3.252556, -0.257603,  5.768398 )     0.48423529
  WF centre and spread    7  (  2.770803,  0.205655,  5.863851 )     0.57951706
  WF centre and spread    8  (  2.731084, -0.289790,  6.332189 )     0.47233454
  WF centre and spread    9  (  6.238213,  3.257767,  0.333611 )     0.59268684
  WF centre and spread   10  (  6.221763,  2.863844, -0.100004 )     0.58674423
  WF centre and spread   11  (  5.745824,  3.350986, -0.121504 )     0.48412332
  WF centre and spread   12  (  5.769372,  2.757538,  0.371343 )     0.50520594
  WF centre and spread   13  (  3.364614,  3.289591,  6.269197 )     0.46974430
  WF centre and spread   14  (  3.371578,  2.720279,  5.757331 )     0.49225175
  WF centre and spread   15  (  2.893326,  3.228541,  5.769485 )     0.57446432
  WF centre and spread   16  (  2.887466,  2.822872,  6.205398 )     0.59075923
  WF centre and spread   17  (  6.269812,  6.211706,  3.152856 )     0.46805683
  WF centre and spread   18  (  6.316292,  5.670809,  2.612857 )     0.48963312
  WF centre and spread   19  (  5.820810,  6.132129,  2.658266 )     0.58122122
  WF centre and spread   20  (  5.821509,  5.716710,  3.070683 )     0.58493312
  WF centre and spread   21  (  3.280178,  0.295053,  3.266042 )     0.58769015
  WF centre and spread   22  (  3.290035, -0.111659,  2.829987 )     0.58518678
  WF centre and spread   23  (  2.784868,  0.342791,  2.768596 )     0.51054062
  WF centre and spread   24  (  2.804700, -0.206416,  3.297101 )     0.48921329
  WF centre and spread   25  (  6.139895,  3.220233,  3.256796 )     0.58518244
  WF centre and spread   26  (  6.170570,  2.725529,  2.804643 )     0.47410925
  WF centre and spread   27  (  5.721385,  3.242720,  2.838581 )     0.58888874
  WF centre and spread   28  (  5.633021,  2.788944,  3.341188 )     0.49583670
  WF centre and spread   29  (  3.253338,  3.110730,  3.190789 )     0.58686754
  WF centre and spread   30  (  3.322690,  2.669482,  2.680226 )     0.48912574
  WF centre and spread   31  (  2.840120,  3.132581,  2.775654 )     0.58909812
  WF centre and spread   32  (  2.775421,  2.623694,  3.222249 )     0.48758103
  WF centre and spread   33  (  1.570881,  1.653374,  1.714507 )     0.66306754
  WF centre and spread   34  (  1.595458,  1.336376,  1.423203 )     0.63166873
  WF centre and spread   35  (  1.281238,  1.674451,  1.406229 )     0.65060459
  WF centre and spread   36  (  1.297495,  1.397685,  1.706054 )     0.69223977
  WF centre and spread   37  (  4.689889,  1.546897,  1.570588 )     0.65242929
  WF centre and spread   38  (  4.697577,  1.257791,  1.256168 )     0.61623562
  WF centre and spread   39  (  4.389683,  1.561074,  1.312582 )     0.63590927
  WF centre and spread   40  (  4.405281,  1.240706,  1.608271 )     0.61372529
  WF centre and spread   41  (  1.716774,  4.682847,  1.663072 )     0.65011810
  WF centre and spread   42  (  1.737040,  4.361409,  1.380519 )     0.62668267
  WF centre and spread   43  (  1.412179,  4.640973,  1.392506 )     0.64063436
  WF centre and spread   44  (  1.442350,  4.351536,  1.731430 )     0.61332902
  WF centre and spread   45  (  4.686009,  4.787378,  1.608375 )     0.62454747
  WF centre and spread   46  (  4.687896,  4.484816,  1.310100 )     0.66711098
  WF centre and spread   47  (  4.399268,  4.730450,  1.308516 )     0.66732686
  WF centre and spread   48  (  4.392810,  4.429477,  1.608123 )     0.63254269
  WF centre and spread   49  (  1.610961,  1.630978,  4.720518 )     0.61783370
  WF centre and spread   50  (  1.547275,  1.350353,  4.398483 )     0.65835226
  WF centre and spread   51  (  1.285600,  1.635121,  4.435132 )     0.65896883
  WF centre and spread   52  (  1.264391,  1.323366,  4.721544 )     0.62083108
  WF centre and spread   53  (  4.803938,  1.487505,  4.751036 )     0.67368116
  WF centre and spread   54  (  4.816695,  1.193679,  4.445475 )     0.63148465
  WF centre and spread   55  (  4.540171,  1.525323,  4.472258 )     0.67148269
  WF centre and spread   56  (  4.480545,  1.203585,  4.765565 )     0.62782816
  WF centre and spread   57  (  1.783548,  4.597028,  4.715637 )     0.65115273
  WF centre and spread   58  (  1.790913,  4.320493,  4.402336 )     0.62585272
  WF centre and spread   59  (  1.504591,  4.640207,  4.443067 )     0.65563723
  WF centre and spread   60  (  1.472553,  4.308826,  4.730041 )     0.62085664
  WF centre and spread   61  (  4.665257,  4.753661,  4.839790 )     0.63147110
  WF centre and spread   62  (  4.749519,  4.511737,  4.429015 )     0.58997668
  WF centre and spread   63  (  4.372882,  4.823495,  4.509829 )     0.61289226
  WF centre and spread   64  (  4.374731,  4.418829,  4.748296 )     0.60851531
  Sum of centres and spreads (218.662862,191.655794,194.281635 )    37.53969872
 
      9    -0.696E-02     0.1373390045       37.5397499276       0.12  <-- CONV
        O_D=      0.0005066 O_OD=      7.9236449 O_TOT=     37.5397499 <-- SPRD
 Delta: O_D=  0.4770759E-03 O_OD= -0.7438210E-02 O_TOT= -0.6961134E-02 <-- DLTA
 ------------------------------------------------------------------------------
 Cycle:     10
  WF centre and spread    1  (  0.347020,  6.262230,  0.285959 )     0.56842026
  WF centre and spread    2  (  0.374148,  5.777087, -0.221946 )     0.48533445
  WF centre and spread    3  ( -0.079303,  6.258455, -0.132205 )     0.57697610
  WF centre and spread    4  ( -0.148761,  5.782881,  0.329978 )     0.47183551
  WF centre and spread    5  (  3.213866,  0.198286,  6.275789 )     0.57693680
  WF centre and spread    6  (  3.251873, -0.256385,  5.766589 )     0.48530158
  WF centre and spread    7  (  2.769800,  0.206428,  5.865482 )     0.57914760
  WF centre and spread    8  (  2.732042, -0.291161,  6.332339 )     0.47223764
  WF centre and spread    9  (  6.239009,  3.256701,  0.334625 )     0.59190385
  WF centre and spread   10  (  6.221447,  2.865488, -0.102382 )     0.58617463
  WF centre and spread   11  (  5.744776,  3.352573, -0.118993 )     0.48467508
  WF centre and spread   12  (  5.769871,  2.755373,  0.370182 )     0.50582416
  WF centre and spread   13  (  3.364295,  3.289607,  6.269164 )     0.47073106
  WF centre and spread   14  (  3.372135,  2.717942,  5.759490 )     0.49221515
  WF centre and spread   15  (  2.893772,  3.228891,  5.767343 )     0.57286454
  WF centre and spread   16  (  2.886816,  2.824877,  6.205407 )     0.59136704
  WF centre and spread   17  (  6.267606,  6.212180,  3.153870 )     0.46894132
  WF centre and spread   18  (  6.318555,  5.671130,  2.613527 )     0.48911592
  WF centre and spread   19  (  5.820367,  6.131862,  2.657374 )     0.58042625
  WF centre and spread   20  (  5.821949,  5.716155,  3.069876 )     0.58534181
  WF centre and spread   21  (  3.280199,  0.296307,  3.267990 )     0.58492175
  WF centre and spread   22  (  3.290213, -0.110139,  2.829996 )     0.58614365
  WF centre and spread   23  (  2.783923,  0.341833,  2.768504 )     0.51120281
  WF centre and spread   24  (  2.805403, -0.208234,  3.295251 )     0.49065514
  WF centre and spread   25  (  6.141481,  3.219757,  3.256399 )     0.58449278
  WF centre and spread   26  (  6.169375,  2.722402,  2.804984 )     0.47315004
  WF centre and spread   27  (  5.722725,  3.243355,  2.837642 )     0.58850345
  WF centre and spread   28  (  5.631301,  2.791826,  3.342205 )     0.49712001
  WF centre and spread   29  (  3.253896,  3.110148,  3.192752 )     0.58524318
  WF centre and spread   30  (  3.322611,  2.671239,  2.678404 )     0.48997415
  WF centre and spread   31  (  2.840092,  3.133297,  2.777322 )     0.58993117
  WF centre and spread   32  (  2.774962,  2.621728,  3.220438 )     0.48782018
  WF centre and spread   33  (  1.572186,  1.654621,  1.714392 )     0.66192176
  WF centre and spread   34  (  1.594194,  1.335554,  1.424576 )     0.63264657
  WF centre and spread   35  (  1.283406,  1.673717,  1.404681 )     0.65156283
  WF centre and spread   36  (  1.295248,  1.397963,  1.706313 )     0.69134165
  WF centre and spread   37  (  4.692117,  1.546427,  1.570653 )     0.65139863
  WF centre and spread   38  (  4.695241,  1.258854,  1.254388 )     0.61743788
  WF centre and spread   39  (  4.386414,  1.562018,  1.313603 )     0.63436262
  WF centre and spread   40  (  4.408656,  1.239157,  1.608925 )     0.61414524
  WF centre and spread   41  (  1.717764,  4.686801,  1.661424 )     0.64846267
  WF centre and spread   42  (  1.736208,  4.361663,  1.381540 )     0.62773147
  WF centre and spread   43  (  1.407173,  4.637544,  1.390355 )     0.63875631
  WF centre and spread   44  (  1.447206,  4.350738,  1.734226 )     0.61373319
  WF centre and spread   45  (  4.682659,  4.788840,  1.608743 )     0.62573910
  WF centre and spread   46  (  4.690985,  4.485362,  1.310055 )     0.66588724
  WF centre and spread   47  (  4.396685,  4.729838,  1.308046 )     0.66617990
  WF centre and spread   48  (  4.395673,  4.428124,  1.608300 )     0.63317031
  WF centre and spread   49  (  1.612730,  1.627462,  4.720763 )     0.61889862
  WF centre and spread   50  (  1.546401,  1.349169,  4.395313 )     0.65672077
  WF centre and spread   51  (  1.283364,  1.638831,  4.437876 )     0.65718557
  WF centre and spread   52  (  1.265750,  1.324369,  4.721744 )     0.62242744
  WF centre and spread   53  (  4.806459,  1.484692,  4.753700 )     0.67216417
  WF centre and spread   54  (  4.814707,  1.192621,  4.446255 )     0.63284796
  WF centre and spread   55  (  4.540921,  1.528452,  4.471131 )     0.66981920
  WF centre and spread   56  (  4.479244,  1.204361,  4.763269 )     0.62905103
  WF centre and spread   57  (  1.786285,  4.594433,  4.718367 )     0.64979933
  WF centre and spread   58  (  1.788532,  4.320621,  4.401650 )     0.62691054
  WF centre and spread   59  (  1.503894,  4.643196,  4.443316 )     0.65385534
  WF centre and spread   60  (  1.472883,  4.308290,  4.727722 )     0.62202786
  WF centre and spread   61  (  4.664164,  4.752673,  4.847685 )     0.62848836
  WF centre and spread   62  (  4.755000,  4.521253,  4.423360 )     0.58794017
  WF centre and spread   63  (  4.373233,  4.825814,  4.513864 )     0.61422900
  WF centre and spread   64  (  4.369972,  4.408049,  4.741997 )     0.60233023
[...]
  WF centre and spread   43  (  1.262688,  4.334306,  1.258921 )     0.47654463
  WF centre and spread   44  (  1.752885,  4.258664,  1.876452 )     0.47303711
  WF centre and spread   45  (  4.316221,  4.921909,  1.705992 )     0.49713818
  WF centre and spread   46  (  4.795420,  4.783003,  1.229543 )     0.58093002
  WF centre and spread   47  (  4.301007,  4.433535,  1.199418 )     0.56629097
  WF centre and spread   48  (  4.753799,  4.293606,  1.700123 )     0.50946392
  WF centre and spread   49  (  1.769761,  1.375539,  4.769402 )     0.52719552
  WF centre and spread   50  (  1.436435,  1.459163,  4.170457 )     0.54977341
  WF centre and spread   51  (  1.131740,  1.780581,  4.762184 )     0.46908977
  WF centre and spread   52  (  1.371052,  1.323377,  4.572000 )     0.72217637
  WF centre and spread   53  (  4.956727,  1.147576,  4.888392 )     0.49012005
  WF centre and spread   54  (  4.548858,  1.139176,  4.321045 )     0.58937108
  WF centre and spread   55  (  4.761861,  1.723480,  4.480949 )     0.57083547
  WF centre and spread   56  (  4.372366,  1.401059,  4.743093 )     0.62373077
  WF centre and spread   57  (  1.916268,  4.268484,  4.865867 )     0.48341463
  WF centre and spread   58  (  1.719804,  4.450862,  4.289287 )     0.63746655
  WF centre and spread   59  (  1.565787,  4.847504,  4.622469 )     0.56360428
  WF centre and spread   60  (  1.348402,  4.301165,  4.511746 )     0.59185630
  WF centre and spread   61  (  4.721080,  4.531410,  4.949930 )     0.56253480
  WF centre and spread   62  (  4.843884,  4.762624,  4.320027 )     0.48189297
  WF centre and spread   63  (  4.329181,  4.920963,  4.751288 )     0.57564624
  WF centre and spread   64  (  4.268195,  4.292603,  4.506434 )     0.47091884
  Sum of centres and spreads (218.660501,191.657077,194.277364 )    34.88119435
 
     98    -0.283E-01     0.3178286176       34.8812456087       1.10  <-- CONV
        O_D=      0.0004556 O_OD=      5.2651916 O_TOT=     34.8812456 <-- SPRD
 Delta: O_D=  0.2836923E-04 O_OD= -0.2827928E-01 O_TOT= -0.2825091E-01 <-- DLTA
 ------------------------------------------------------------------------------
 Cycle:     99
  WF centre and spread    1  (  0.360870,  6.252527,  0.291899 )     0.55804262
  WF centre and spread    2  (  0.359768,  5.777554, -0.237223 )     0.48494326
  WF centre and spread    3  ( -0.074590,  6.267211, -0.117953 )     0.58381025
  WF centre and spread    4  ( -0.153016,  5.783391,  0.324958 )     0.47286149
  WF centre and spread    5  (  3.223960,  0.184949,  6.275832 )     0.57880076
  WF centre and spread    6  (  3.240955, -0.247664,  5.746791 )     0.48239146
  WF centre and spread    7  (  2.760988,  0.219915,  5.885362 )     0.57511338
  WF centre and spread    8  (  2.741703, -0.299981,  6.332189 )     0.47214470
  WF centre and spread    9  (  6.251556,  3.239691,  0.343186 )     0.58585381
  WF centre and spread   10  (  6.211438,  2.886490, -0.126540 )     0.58672405
  WF centre and spread   11  (  5.737323,  3.370891, -0.088846 )     0.48469298
  WF centre and spread   12  (  5.774847,  2.733003,  0.355343 )     0.50179961
  WF centre and spread   13  (  3.362915,  3.289959,  6.268816 )     0.47152485
  WF centre and spread   14  (  3.372385,  2.693185,  5.783630 )     0.48711767
  WF centre and spread   15  (  2.916823,  3.229710,  5.745768 )     0.56884596
  WF centre and spread   16  (  2.864746,  2.848323,  6.203139 )     0.59282846
  WF centre and spread   17  (  6.253292,  6.217353,  3.162809 )     0.46800229
  WF centre and spread   18  (  6.332364,  5.678312,  2.620949 )     0.48839078
  WF centre and spread   19  (  5.817248,  6.126762,  2.649359 )     0.57506054
  WF centre and spread   20  (  5.825666,  5.708813,  3.061615 )     0.58855947
  WF centre and spread   21  (  3.263729,  0.303571,  3.284470 )     0.57553091
  WF centre and spread   22  (  3.306077, -0.091092,  2.830636 )     0.58816117
  WF centre and spread   23  (  2.778543,  0.334827,  2.768159 )     0.51249966
  WF centre and spread   24  (  2.811403, -0.227743,  3.278497 )     0.49185881
  WF centre and spread   25  (  6.157757,  3.205822,  3.252446 )     0.58482871
  WF centre and spread   26  (  6.151753,  2.703108,  2.809503 )     0.47239991
  WF centre and spread   27  (  5.739394,  3.255589,  2.830518 )     0.58443152
  WF centre and spread   28  (  5.616098,  2.812737,  3.348737 )     0.49305513
  WF centre and spread   29  (  3.261151,  3.084470,  3.210708 )     0.58353680
  WF centre and spread   30  (  3.318151,  2.684934,  2.659432 )     0.48687125
  WF centre and spread   31  (  2.842521,  3.156821,  2.798545 )     0.58671133
  WF centre and spread   32  (  2.769725,  2.610254,  3.200343 )     0.48829490
  WF centre and spread   33  (  1.593767,  1.502793,  1.764617 )     0.67949250
  WF centre and spread   34  (  1.442706,  1.172659,  1.488373 )     0.58722188
  WF centre and spread   35  (  1.594339,  1.789253,  1.279068 )     0.55947318
  WF centre and spread   36  (  1.113498,  1.595891,  1.717681 )     0.57781035
  WF centre and spread   37  (  4.809558,  1.638397,  1.269394 )     0.57630116
  WF centre and spread   38  (  4.342148,  1.157212,  1.135048 )     0.50273575
  WF centre and spread   39  (  4.296734,  1.647038,  1.587606 )     0.56980570
  WF centre and spread   40  (  4.733908,  1.164169,  1.755479 )     0.47031677
  WF centre and spread   41  (  1.598742,  4.902797,  1.576592 )     0.53988688
  WF centre and spread   42  (  1.693606,  4.543061,  1.455898 )     0.73692950
  WF centre and spread   43  (  1.262846,  4.334082,  1.258653 )     0.47642366
  WF centre and spread   44  (  1.753324,  4.258353,  1.876300 )     0.47321445
  WF centre and spread   45  (  4.315780,  4.921766,  1.706118 )     0.49694372
  WF centre and spread   46  (  4.795185,  4.783395,  1.229288 )     0.58037185
  WF centre and spread   47  (  4.301057,  4.433157,  1.199494 )     0.56606379
  WF centre and spread   48  (  4.754321,  4.293722,  1.700224 )     0.50951340
  WF centre and spread   49  (  1.769737,  1.374856,  4.770006 )     0.52698143
  WF centre and spread   50  (  1.436967,  1.459835,  4.170349 )     0.54943779
  WF centre and spread   51  (  1.131554,  1.780465,  4.762389 )     0.46903511
  WF centre and spread   52  (  1.370723,  1.323510,  4.571322 )     0.72169353
  WF centre and spread   53  (  4.956844,  1.147394,  4.888201 )     0.49013320
  WF centre and spread   54  (  4.547671,  1.138270,  4.320667 )     0.58822640
  WF centre and spread   55  (  4.762525,  1.723148,  4.480389 )     0.57085588
  WF centre and spread   56  (  4.372777,  1.402449,  4.744220 )     0.62333912
  WF centre and spread   57  (  1.916163,  4.268315,  4.865916 )     0.48325436
  WF centre and spread   58  (  1.720695,  4.451903,  4.289413 )     0.63764683
  WF centre and spread   59  (  1.565360,  4.847336,  4.623095 )     0.56354509
  WF centre and spread   60  (  1.348021,  4.300414,  4.510939 )     0.59153760
  WF centre and spread   61  (  4.721242,  4.531128,  4.949741 )     0.56243779
  WF centre and spread   62  (  4.843875,  4.762740,  4.319906 )     0.48222350
  WF centre and spread   63  (  4.329193,  4.921091,  4.751630 )     0.57548216
  WF centre and spread   64  (  4.268062,  4.292618,  4.506328 )     0.47095515
  Sum of centres and spreads (218.660470,191.656908,194.277423 )    34.86497797
 
     99    -0.162E-01     0.2860841051       34.8650292298       1.11  <-- CONV
        O_D=      0.0005914 O_OD=      5.2488394 O_TOT=     34.8650292 <-- SPRD
 Delta: O_D=  0.1358091E-03 O_OD= -0.1635219E-01 O_TOT= -0.1621638E-01 <-- DLTA
 ------------------------------------------------------------------------------
 Cycle:    100
  WF centre and spread    1  (  0.360889,  6.252537,  0.291918 )     0.55791660
  WF centre and spread    2  (  0.359790,  5.777524, -0.237246 )     0.48495497
  WF centre and spread    3  ( -0.074598,  6.267243, -0.117959 )     0.58378160
  WF centre and spread    4  ( -0.153036,  5.783374,  0.324980 )     0.47295314
  WF centre and spread    5  (  3.223984,  0.184962,  6.275847 )     0.57870827
  WF centre and spread    6  (  3.240974, -0.247689,  5.746761 )     0.48221776
  WF centre and spread    7  (  2.760981,  0.219937,  5.885351 )     0.57511056
  WF centre and spread    8  (  2.741693, -0.300007,  6.332202 )     0.47208669
  WF centre and spread    9  (  6.251574,  3.239697,  0.343203 )     0.58574066
  WF centre and spread   10  (  6.211432,  2.886473, -0.126548 )     0.58672704
  WF centre and spread   11  (  5.737293,  3.370911, -0.088852 )     0.48457717
  WF centre and spread   12  (  5.774827,  2.732981,  0.355363 )     0.50171870
  WF centre and spread   13  (  3.362937,  3.289975,  6.268836 )     0.47137561
  WF centre and spread   14  (  3.372406,  2.693167,  5.783629 )     0.48694356
  WF centre and spread   15  (  2.916829,  3.229724,  5.745748 )     0.56874134
  WF centre and spread   16  (  2.864732,  2.848332,  6.203163 )     0.59292507
  WF centre and spread   17  (  6.253318,  6.217359,  3.162818 )     0.46809985
  WF centre and spread   18  (  6.332378,  5.678300,  2.620930 )     0.48838709
  WF centre and spread   19  (  5.817229,  6.126777,  2.649339 )     0.57486297
  WF centre and spread   20  (  5.825656,  5.708791,  3.061628 )     0.58842380
  WF centre and spread   21  (  3.263734,  0.303590,  3.284483 )     0.57543533
  WF centre and spread   22  (  3.306107, -0.091103,  2.830621 )     0.58809257
  WF centre and spread   23  (  2.778517,  0.334852,  2.768130 )     0.51242681
  WF centre and spread   24  (  2.811378, -0.227761,  3.278496 )     0.49177399
  WF centre and spread   25  (  6.157762,  3.205823,  3.252455 )     0.58480001
  WF centre and spread   26  (  6.151751,  2.703084,  2.809497 )     0.47228466
  WF centre and spread   27  (  5.739392,  3.255600,  2.830507 )     0.58444391
  WF centre and spread   28  (  5.616076,  2.812728,  3.348749 )     0.49295222
  WF centre and spread   29  (  3.261158,  3.084457,  3.210712 )     0.58353475
  WF centre and spread   30  (  3.318160,  2.684926,  2.659412 )     0.48680249
  WF centre and spread   31  (  2.842507,  3.156844,  2.798536 )     0.58655430
  WF centre and spread   32  (  2.769704,  2.610233,  3.200350 )     0.48804495
  WF centre and spread   33  (  1.593772,  1.501462,  1.765596 )     0.67913466
  WF centre and spread   34  (  1.441400,  1.172452,  1.487419 )     0.58685108
  WF centre and spread   35  (  1.595600,  1.790146,  1.279124 )     0.55871653
  WF centre and spread   36  (  1.113527,  1.596541,  1.717599 )     0.57758335
  WF centre and spread   37  (  4.809468,  1.638436,  1.268799 )     0.57605194
  WF centre and spread   38  (  4.341517,  1.156957,  1.135335 )     0.50255300
  WF centre and spread   39  (  4.297001,  1.647189,  1.587950 )     0.56977847
  WF centre and spread   40  (  4.734342,  1.164209,  1.755444 )     0.47017212
  WF centre and spread   41  (  1.598127,  4.902824,  1.577097 )     0.53976369
  WF centre and spread   42  (  1.693728,  4.543419,  1.455727 )     0.73673218
  WF centre and spread   43  (  1.262982,  4.333930,  1.258449 )     0.47633501
  WF centre and spread   44  (  1.753664,  4.258130,  1.876144 )     0.47326366
  WF centre and spread   45  (  4.315532,  4.921631,  1.706192 )     0.49705511
  WF centre and spread   46  (  4.794983,  4.783695,  1.229106 )     0.58009967
  WF centre and spread   47  (  4.301111,  4.432875,  1.199563 )     0.56601194
  WF centre and spread   48  (  4.754721,  4.293862,  1.700274 )     0.50951661
  WF centre and spread   49  (  1.769683,  1.374296,  4.770476 )     0.52679928
  WF centre and spread   50  (  1.437402,  1.460383,  4.170284 )     0.54932449
  WF centre and spread   51  (  1.131423,  1.780345,  4.762532 )     0.46902244
  WF centre and spread   52  (  1.370452,  1.323620,  4.570793 )     0.72157759
  WF centre and spread   53  (  4.956925,  1.147257,  4.888038 )     0.49015462
  WF centre and spread   54  (  4.546705,  1.137552,  4.320393 )     0.58733658
  WF centre and spread   55  (  4.763060,  1.722852,  4.479942 )     0.57088375
  WF centre and spread   56  (  4.373133,  1.403558,  4.745117 )     0.62321037
  WF centre and spread   57  (  1.916079,  4.268196,  4.865955 )     0.48314339
  WF centre and spread   58  (  1.721408,  4.452753,  4.289551 )     0.63782166
  WF centre and spread   59  (  1.565018,  4.847183,  4.623611 )     0.56350916
  WF centre and spread   60  (  1.347766,  4.299835,  4.510279 )     0.59121597
  WF centre and spread   61  (  4.721364,  4.530916,  4.949576 )     0.56238855
  WF centre and spread   62  (  4.843825,  4.762804,  4.319854 )     0.48246835
  WF centre and spread   63  (  4.329214,  4.921174,  4.751902 )     0.57534704
  WF centre and spread   64  (  4.267978,  4.292670,  4.506269 )     0.47104982
  Sum of centres and spreads (218.660445,191.656791,194.277455 )    34.85827052
 
    100    -0.671E-02     0.1904999936       34.8583217794       1.12  <-- CONV
        O_D=      0.0001011 O_OD=      5.2426222 O_TOT=     34.8583218 <-- SPRD
 Delta: O_D= -0.4902519E-03 O_OD= -0.6217199E-02 O_TOT= -0.6707450E-02 <-- DLTA
 ------------------------------------------------------------------------------

 Writing checkpoint file water.chk... done

 Final State
  WF centre and spread    1  (  0.360889,  6.252537,  0.291918 )     0.55791660
  WF centre and spread    2  (  0.359790,  5.777524, -0.237246 )     0.48495497
  WF centre and spread    3  ( -0.074598,  6.267243, -0.117959 )     0.58378160
  WF centre and spread    4  ( -0.153036,  5.783374,  0.324980 )     0.47295314
  WF centre and spread    5  (  3.223984,  0.184962,  6.275847 )     0.57870827
  WF centre and spread    6  (  3.240974, -0.247689,  5.746761 )     0.48221776
  WF centre and spread    7  (  2.760981,  0.219937,  5.885351 )     0.57511056
  WF centre and spread    8  (  2.741693, -0.300007,  6.332202 )     0.47208669
  WF centre and spread    9  (  6.251574,  3.239697,  0.343203 )     0.58574066
  WF centre and spread   10  (  6.211432,  2.886473, -0.126548 )     0.58672704
  WF centre and spread   11  (  5.737293,  3.370911, -0.088852 )     0.48457717
  WF centre and spread   12  (  5.774827,  2.732981,  0.355363 )     0.50171870
  WF centre and spread   13  (  3.362937,  3.289975,  6.268836 )     0.47137561
  WF centre and spread   14  (  3.372406,  2.693167,  5.783629 )     0.48694356
  WF centre and spread   15  (  2.916829,  3.229724,  5.745748 )     0.56874134
  WF centre and spread   16  (  2.864732,  2.848332,  6.203163 )     0.59292507
  WF centre and spread   17  (  6.253318,  6.217359,  3.162818 )     0.46809985
  WF centre and spread   18  (  6.332378,  5.678300,  2.620930 )     0.48838709
  WF centre and spread   19  (  5.817229,  6.126777,  2.649339 )     0.57486297
  WF centre and spread   20  (  5.825656,  5.708791,  3.061628 )     0.58842380
  WF centre and spread   21  (  3.263734,  0.303590,  3.284483 )     0.57543533
  WF centre and spread   22  (  3.306107, -0.091103,  2.830621 )     0.58809257
  WF centre and spread   23  (  2.778517,  0.334852,  2.768130 )     0.51242681
  WF centre and spread   24  (  2.811378, -0.227761,  3.278496 )     0.49177399
  WF centre and spread   25  (  6.157762,  3.205823,  3.252455 )     0.58480001
  WF centre and spread   26  (  6.151751,  2.703084,  2.809497 )     0.47228466
  WF centre and spread   27  (  5.739392,  3.255600,  2.830507 )     0.58444391
  WF centre and spread   28  (  5.616076,  2.812728,  3.348749 )     0.49295222
  WF centre and spread   29  (  3.261158,  3.084457,  3.210712 )     0.58353475
  WF centre and spread   30  (  3.318160,  2.684926,  2.659412 )     0.48680249
  WF centre and spread   31  (  2.842507,  3.156844,  2.798536 )     0.58655430
  WF centre and spread   32  (  2.769704,  2.610233,  3.200350 )     0.48804495
  WF centre and spread   33  (  1.593772,  1.501462,  1.765596 )     0.67913466
  WF centre and spread   34  (  1.441400,  1.172452,  1.487419 )     0.58685108
  WF centre and spread   35  (  1.595600,  1.790146,  1.279124 )     0.55871653
  WF centre and spread   36  (  1.113527,  1.596541,  1.717599 )     0.57758335
  WF centre and spread   37  (  4.809468,  1.638436,  1.268799 )     0.57605194
  WF centre and spread   38  (  4.341517,  1.156957,  1.135335 )     0.50255300
  WF centre and spread   39  (  4.297001,  1.647189,  1.587950 )     0.56977847
  WF centre and spread   40  (  4.734342,  1.164209,  1.755444 )     0.47017212
  WF centre and spread   41  (  1.598127,  4.902824,  1.577097 )     0.53976369
  WF centre and spread   42  (  1.693728,  4.543419,  1.455727 )     0.73673218
  WF centre and spread   43  (  1.262982,  4.333930,  1.258449 )     0.47633501
  WF centre and spread   44  (  1.753664,  4.258130,  1.876144 )     0.47326366
  WF centre and spread   45  (  4.315532,  4.921631,  1.706192 )     0.49705511
  WF centre and spread   46  (  4.794983,  4.783695,  1.229106 )     0.58009967
  WF centre and spread   47  (  4.301111,  4.432875,  1.199563 )     0.56601194
  WF centre and spread   48  (  4.754721,  4.293862,  1.700274 )     0.50951661
  WF centre and spread   49  (  1.769683,  1.374296,  4.770476 )     0.52679928
  WF centre and spread   50  (  1.437402,  1.460383,  4.170284 )     0.54932449
  WF centre and spread   51  (  1.131423,  1.780345,  4.762532 )     0.46902244
  WF centre and spread   52  (  1.370452,  1.323620,  4.570793 )     0.72157759
  WF centre and spread   53  (  4.956925,  1.147257,  4.888038 )     0.49015462
  WF centre and spread   54  (  4.546705,  1.137552,  4.320393 )     0.58733658
  WF centre and spread   55  (  4.763060,  1.722852,  4.479942 )     0.57088375
  WF centre and spread   56  (  4.373133,  1.403558,  4.745117 )     0.62321037
  WF centre and spread   57  (  1.916079,  4.268196,  4.865955 )     0.48314339
  WF centre and spread   58  (  1.721408,  4.452753,  4.289551 )     0.63782166
  WF centre and spread   59  (  1.565018,  4.847183,  4.623611 )     0.56350916
  WF centre and spread   60  (  1.347766,  4.299835,  4.510279 )     0.59121597
  WF centre and spread   61  (  4.721364,  4.530916,  4.949576 )     0.56238855
  WF centre and spread   62  (  4.843825,  4.762804,  4.319854 )     0.48246835
  WF centre and spread   63  (  4.329214,  4.921174,  4.751902 )     0.57534704
  WF centre and spread   64  (  4.267978,  4.292670,  4.506269 )     0.47104982
  Sum of centres and spreads (218.660445,191.656791,194.277455 )    34.85827052
 
         Spreads (Ang^2)       Omega I      =    29.615598420
        ================       Omega D      =     0.000101139
                               Omega OD     =     5.242622220
    Final Spread (Ang^2)       Omega Total  =    34.858321779
 ------------------------------------------------------------------------------

 Wannier centres written to file water_centres.xyz
 Time for wannierise            1.159 (sec)

 Writing checkpoint file water.chk... done

 Time for plotting              0.000 (sec)
 Total Execution Time           1.910 (sec)

 *===========================================================================*
 |                             TIMING INFORMATION                            |
 *===========================================================================*
 |    Tag                                                Ncalls      Time (s)|
 |---------------------------------------------------------------------------|
 |kmesh: get                                        :         1         0.018|
 |overlap: allocate                                 :         1         0.006|
 |overlap: read                                     :         1         0.708|
 |wann: main                                        :         1         1.159|
 |plot: main                                        :         1         0.000|
 *---------------------------------------------------------------------------*
 
 All done: wannier90 exiting
