-1.880174804687500000e+03
-1.878937988281250000e+03
-1.879182006835937500e+03
-1.877640502929687500e+03
-1.881343139648437500e+03
-1.878328857421875000e+03
-1.880104248046875000e+03
-1.881158813476562500e+03
-1.881513305664062500e+03
-1.879662719726562500e+03
-1.883006347656250000e+03
-1.879657592773437500e+03
-1.879559936523437500e+03
-1.881307861328125000e+03
-1.878723266601562500e+03
-1.876712768554687500e+03
-1.882398681640625000e+03
-1.882167358398437500e+03
-1.881945922851562500e+03
-1.880058837890625000e+03
-1.880067382812500000e+03
