       N       E                     dE             d eps       ncg     rms          rms(c)
DAV:   1     0.153456394536E+03    0.15346E+03   -0.47183E+03    64   0.142E+03
DAV:   2     0.556250622129E+02   -0.97831E+02   -0.96863E+02    92   0.140E+02
DAV:   3    -0.201124002334E+02   -0.75737E+02   -0.74577E+02    88   0.137E+02
DAV:   4    -0.316800712874E+02   -0.11568E+02   -0.11554E+02    64   0.683E+01
DAV:   5    -0.319835739191E+02   -0.30350E+00   -0.30325E+00    64   0.168E+01    0.181E+01
RMM:   6    -0.286028075876E+02    0.33808E+01   -0.12058E+01    64   0.248E+01    0.178E+01
RMM:   7    -0.285468343543E+02    0.55973E-01   -0.12858E+00    76   0.552E+00    0.157E+01
RMM:   8    -0.295028635131E+02   -0.95603E+00   -0.74149E+00    64   0.228E+01    0.118E+01
RMM:   9    -0.283052913922E+02    0.11976E+01   -0.29669E+00    64   0.125E+01    0.396E+00
RMM:  10    -0.283221013699E+02   -0.16810E-01   -0.19100E-01    76   0.244E+00    0.191E+00
RMM:  11    -0.283192465715E+02    0.28548E-02   -0.15172E-02    72   0.582E-01    0.881E-01
RMM:  12    -0.283192202807E+02    0.26291E-04   -0.75232E-02    64   0.159E+00    0.612E-01
RMM:  13    -0.283225936297E+02   -0.33733E-02   -0.51310E-03    72   0.366E-01    0.587E-01
RMM:  14    -0.283339660218E+02   -0.11372E-01   -0.73852E-03    64   0.424E-01    0.591E-01
RMM:  15    -0.283340502667E+02   -0.84245E-04   -0.24860E-03    67   0.373E-01    0.233E-01
RMM:  16    -0.283369379785E+02   -0.28877E-02   -0.13164E-02    62   0.754E-01    0.260E-01
RMM:  17    -0.283386766089E+02   -0.17386E-02   -0.27055E-03    74   0.290E-01    0.381E-01
RMM:  18    -0.283382116162E+02    0.46499E-03   -0.10915E-03    64   0.222E-01    0.266E-01
RMM:  19    -0.283384059238E+02   -0.19431E-03   -0.74856E-03    60   0.549E-01    0.212E-01
RMM:  20    -0.283390690991E+02   -0.66318E-03   -0.36853E-03    74   0.330E-01    0.438E-01
RMM:  21    -0.283385233958E+02    0.54570E-03   -0.16797E-04    64   0.813E-02    0.400E-01
RMM:  22    -0.283375778625E+02    0.94553E-03   -0.37979E-03    56   0.393E-01    0.466E-02
RMM:  23    -0.283380880514E+02   -0.51019E-03   -0.22482E-03    70   0.268E-01    0.141E-01
RMM:  24    -0.283386120742E+02   -0.52402E-03   -0.13161E-04    60   0.606E-02    0.176E-01
RMM:  25    -0.283387077605E+02   -0.95686E-04   -0.18291E-04    60   0.888E-02    0.109E-01
RMM:  26    -0.283388918080E+02   -0.18405E-03   -0.68895E-04    52   0.164E-01    0.168E-02
RMM:  27    -0.283390073365E+02   -0.11553E-03   -0.76757E-05    60   0.464E-02    0.402E-02
RMM:  28    -0.283390842110E+02   -0.76874E-04   -0.94260E-06    54   0.214E-02    0.290E-02
RMM:  29    -0.283391192833E+02   -0.35072E-04   -0.58716E-06    66   0.141E-02    0.177E-02
RMM:  30    -0.283391532412E+02   -0.33958E-04   -0.12410E-05    58   0.218E-02    0.190E-03
RMM:  31    -0.283392014004E+02   -0.48159E-04   -0.13849E-05    66   0.207E-02    0.124E-02
RMM:  32    -0.283392136811E+02   -0.12281E-04   -0.10715E-06    64   0.651E-03    0.101E-02
RMM:  33    -0.283392262857E+02   -0.12605E-04   -0.42844E-06    60   0.130E-02    0.163E-03
RMM:  34    -0.283392336406E+02   -0.73549E-05   -0.40159E-07    60   0.335E-03    0.158E-03
RMM:  35    -0.283392396318E+02   -0.59912E-05   -0.20917E-07    56   0.230E-03    0.566E-04
RMM:  36    -0.283392413771E+02   -0.17453E-05   -0.60835E-08    60   0.144E-03    0.115E-03
RMM:  37    -0.283392424418E+02   -0.10647E-05   -0.32871E-08    51   0.123E-03    0.348E-04
RMM:  38    -0.283392430481E+02   -0.60627E-06   -0.27592E-08    48   0.109E-03    0.124E-04
RMM:  39    -0.283392433191E+02   -0.27109E-06   -0.15879E-08    45   0.798E-04    0.421E-04
RMM:  40    -0.283392434505E+02   -0.13139E-06   -0.55894E-09    46   0.460E-04    0.269E-04
RMM:  41    -0.283392435063E+02   -0.55769E-07   -0.46209E-09    48   0.442E-04    0.563E-05
RMM:  42    -0.283392435683E+02   -0.61993E-07   -0.22156E-09    36   0.260E-04    0.768E-05
RMM:  43    -0.283392436161E+02   -0.47799E-07   -0.23078E-09    36   0.288E-04    0.369E-05
RMM:  44    -0.283392436375E+02   -0.21363E-07   -0.11477E-09    34   0.211E-04    0.349E-05
RMM:  45    -0.283392436588E+02   -0.21336E-07   -0.54775E-10    30   0.184E-04    0.164E-05
RMM:  46    -0.283392436604E+02   -0.16298E-08   -0.38547E-11    31   0.164E-04
   1 F= -.28339244E+02 E0= -.28339244E+02  d E =-.362100E-18
