-2.416961993605324821e+00 -1.308207829603576178e+00 2.964092683511953402e-02 -1.308207829603576178e+00 -3.742227867647810680e+00 4.081946967818103622e-02 2.964092683511953402e-02 4.081946967818103622e-02 -2.743087086901141447e+00
