8.496069908142089844e+00 7.507369995117187500e+00 9.637129783630371094e+00 4.059770107269287109e+00 6.815629959106445312e+00 1.205142021179199219e+01 2.640820026397705078e+00 1.059821987152099609e+01 9.350600242614746094e+00 1.169421958923339844e+01 1.421401977539062500e+01 1.369312000274658203e+01 8.730620384216308594e+00 1.360762023925781250e+01 1.275802040100097656e+01 1.034224987030029297e+01 2.889709949493408203e+00 1.300131988525390625e+01 1.601050019264221191e+00 6.440639972686767578e+00 5.324160099029541016e+00 3.152760028839111328e+00 1.228372001647949219e+01 1.538072013854980469e+01 1.479891967773437500e+01 1.574022006988525391e+01 6.158289909362792969e+00 9.230939865112304688e+00 1.558071994781494141e+01 8.535599708557128906e-01 9.143670082092285156e+00 1.632781982421875000e+01 1.049042034149169922e+01 4.623189926147460938e+00 4.759309768676757812e+00 1.584632015228271484e+01 1.133771991729736328e+01 1.184912014007568359e+01 1.700109958648681641e+00 1.037082004547119141e+01 9.819319725036621094e+00 1.392471981048583984e+01 9.573989868164062500e+00 9.335709571838378906e+00 5.441239833831787109e+00 5.611889839172363281e+00 7.821640014648437500e+00 4.756989955902099609e+00 8.114819526672363281e+00 6.368969917297363281e+00 1.431861972808837891e+01 5.128970146179199219e+00 1.367381954193115234e+01 6.858170032501220703e+00 1.027388954162597656e+01 1.601122093200683594e+01 3.543190002441406250e+00 9.826439857482910156e+00 3.642090082168579102e+00 6.460680007934570312e+00 1.117901992797851562e+01 9.755370140075683594e+00 8.103580474853515625e+00 9.373950004577636719e+00 7.707230091094970703e+00 1.215692043304443359e+01 3.490999937057495117e+00 3.542900085449218750e-01 1.014692974090576172e+01 3.996380090713500977e+00 1.580699980258941650e-01 1.574962043762207031e+01 5.487499833106994629e-01 1.159712028503417969e+01 1.540571975708007812e+01 1.583901977539062500e+01 3.263430118560791016e+00 5.882390022277832031e+00 1.436762046813964844e+01 1.451041984558105469e+01 3.619450092315673828e+00 1.502931976318359375e+01 4.123839855194091797e+00 1.088591957092285156e+01 1.027870059013366699e+00 1.271312046051025391e+01 1.078011989593505859e+01 6.352479934692382812e+00 7.239099740982055664e-01 3.330840110778808594e+00 1.213022041320800781e+01 7.217850208282470703e+00 1.201441955566406250e+01 5.834469795227050781e+00 3.044529914855957031e+00 1.395172023773193359e+01 1.764809966087341309e+00 1.056252002716064453e+01 6.723559856414794922e+00 2.074779987335205078e+00 8.853919982910156250e+00 1.130541992187500000e+01 8.039000034332275391e-01 3.548850059509277344e+00 9.661970138549804688e+00 6.514130115509033203e+00 7.842520236968994141e+00 1.595541954040527344e+01 1.392512035369873047e+01 1.495991992950439453e+01 1.196512031555175781e+01 8.123740196228027344e+00 9.831159591674804688e+00 7.971920013427734375e+00 1.591242027282714844e+01 8.184800148010253906e+00 1.024079036712646484e+01 3.117880105972290039e+00 1.439132022857666016e+01 1.132491970062255859e+01 5.161570072174072266e+00 1.141012001037597656e+01 8.812500000000000000e+00 1.174211978912353516e+01 9.619509696960449219e+00 3.207509994506835938e+00 2.425390005111694336e+00 1.342611980438232422e+01 6.172160148620605469e+00 1.147212028503417969e+01 5.350510120391845703e+00 4.800250053405761719e+00 1.376191997528076172e+01 1.778429985046386719e+00 6.749410152435302734e+00 2.532870054244995117e+00 1.464962005615234375e+01 1.388731956481933594e+01 2.192199975252151489e-01 5.232029914855957031e+00 7.482140064239501953e+00 1.026998996734619141e+01 2.822040081024169922e+00 7.419999837875366211e-01 7.545239925384521484e+00 3.390399932861328125e+00 7.720550060272216797e+00 8.713899850845336914e-01 5.826299786567687988e-01 9.444769859313964844e+00 1.174409985542297363e+00 1.594902038574218750e+01 6.944990158081054688e+00 1.319861984252929688e+01 9.562899589538574219e+00 5.710549831390380859e+00 6.788000106811523438e+00 5.030500292778015137e-01 1.531912040710449219e+01 6.050920009613037109e+00 1.037261962890625000e+01 1.344810009002685547e+00 9.799550056457519531e+00 1.380412006378173828e+01 1.019773006439208984e+01 1.154751968383789062e+01 1.794849991798400879e+00 5.413420200347900391e+00 2.126610040664672852e+00 2.861829996109008789e+00 2.828510046005249023e+00 3.446670055389404297e+00 1.150741958618164062e+01 1.625570058822631836e+00 1.557252025604248047e+01 5.620210170745849609e+00 4.081870079040527344e+00 7.918049812316894531e+00 6.543839931488037109e+00 1.512930035591125488e+00 1.033602046966552734e+01 2.208590030670166016e+00 1.041501998901367188e+01 7.640120029449462891e+00 1.619802093505859375e+01 1.284512042999267578e+01 1.593581962585449219e+01 6.350749969482421875e+00 1.215762042999267578e+01 7.759419918060302734e+00 4.374099969863891602e-01 7.951340198516845703e+00 7.913690090179443359e+00 4.140029907226562500e+00 1.295411968231201172e+01 1.232192039489746094e+01 7.597970008850097656e+00 1.555142021179199219e+01 4.353390216827392578e+00 6.372159957885742188e+00 7.664959907531738281e+00 7.271860122680664062e+00 4.828790187835693359e+00 4.596059799194335938e+00 5.066359996795654297e+00 1.123252010345458984e+01 1.409552001953125000e+01 7.799389839172363281e+00 1.123482036590576172e+01 3.324419975280761719e+00 2.973289966583251953e+00 6.929049968719482422e+00 1.631702041625976562e+01 4.651559829711914062e+00 2.914239883422851562e+00 3.428719997406005859e+00 1.170232009887695312e+01 2.964699983596801758e+00 3.099100112915039062e+00 5.007420063018798828e+00 1.635972023010253906e+01 7.859819889068603516e+00 1.043171977996826172e+01 4.613959789276123047e+00 9.020339965820312500e+00 1.184891986846923828e+01 1.533751964569091797e+01 1.623461914062500000e+01 1.341042041778564453e+01 2.099740028381347656e+00 9.483249664306640625e+00 1.625102043151855469e+01 1.212630033493041992e+00 1.341322040557861328e+01 1.605512046813964844e+01 1.500671958923339844e+01 1.362882041931152344e+01 9.040610313415527344e+00 1.287172031402587891e+01 9.028900265693664551e-01 1.476531982421875000e+01 7.223139762878417969e+00 1.444402027130126953e+01 1.435072040557861328e+01 1.574761962890625000e+01 9.532999992370605469e-01 1.539391994476318359e+01 1.053092002868652344e+01 1.007650017738342285e+00 4.497960090637207031e+00 2.750070095062255859e+00 1.153382015228271484e+01 7.387969970703125000e+00 1.310801982879638672e+01 5.527589797973632812e+00 7.768459796905517578e+00 1.955510020256042480e+00 1.105710029602050781e+00 1.172702026367187500e+01 1.433179974555969238e+00 1.513601970672607422e+01 7.263900041580200195e-01 1.084722042083740234e+01 1.276902008056640625e+01 5.396299839019775391e+00 1.272681999206542969e+01 1.180531978607177734e+01 1.373342037200927734e+01 8.364509582519531250e+00 1.373739957809448242e+00 1.437432003021240234e+01 9.761779785156250000e+00 1.214622020721435547e+01 8.888000249862670898e-01 3.548719882965087891e+00 1.441602039337158203e+01 1.464221954345703125e+01 1.902510046958923340e+00 1.586832046508789062e+01 4.371109962463378906e+00 8.539019584655761719e+00 1.433981990814208984e+01 1.529341983795166016e+01 1.374662017822265625e+01 1.592671966552734375e+01 1.585091972351074219e+01 1.224882030487060547e+01 3.291670083999633789e+00 2.716660022735595703e+00 2.705970048904418945e+00 1.025599986314773560e-01 1.499322032928466797e+01 7.360500097274780273e-01 1.103332042694091797e+01 1.366851997375488281e+01 6.889780044555664062e+00 5.627679824829101562e+00 3.362289905548095703e+00 7.726500034332275391e-01 5.692450046539306641e+00 1.176222038269042969e+01 1.370952033996582031e+01 3.869129896163940430e+00 1.216501998901367188e+01 6.961520195007324219e+00 9.123149871826171875e+00 1.000465011596679688e+01 7.575850009918212891e+00 3.319149971008300781e+00 6.617969989776611328e+00 3.866420030593872070e+00 1.051161956787109375e+01 1.465571975708007812e+01 6.896009922027587891e+00 8.090029716491699219e+00 8.060110092163085938e+00 1.579712009429931641e+01 5.241469860076904297e+00 6.094799995422363281e+00 6.398089885711669922e+00 9.986260414123535156e+00 4.511399865150451660e-01 5.914720058441162109e+00 1.592261981964111328e+01 3.737159967422485352e+00 1.614392089843750000e+01 2.030090093612670898e+00 1.256462001800537109e+01 1.147772026062011719e+01 1.346562004089355469e+01 1.431742000579833984e+01 1.335622024536132812e+01 7.614439964294433594e+00 1.006649017333984375e+01 5.616630077362060547e+00 1.630232048034667969e+01 1.211972045898437500e+01 1.207532024383544922e+01 9.899709701538085938e+00 9.263589859008789062e+00 1.254102039337158203e+01 7.487510204315185547e+00 2.787270069122314453e+00 1.362831974029541016e+01 3.287800073623657227e+00 4.728370189666748047e+00 3.385689973831176758e+00 6.163269996643066406e+00 1.327212047576904297e+01 1.182021999359130859e+01 1.609272003173828125e+01 1.480611991882324219e+01 5.912020206451416016e+00 1.465479969978332520e+00 1.316092014312744141e+01 4.133470058441162109e+00 1.596732044219970703e+01 1.178501987457275391e+01 1.323322010040283203e+01 6.669869899749755859e+00 2.609060049057006836e+00 4.423110008239746094e+00 1.210781955718994141e+01 8.123629570007324219e+00 1.167541980743408203e+01 1.471922016143798828e+01 2.627229928970336914e+00 8.712920188903808594e+00 4.678050041198730469e+00 1.474851989746093750e+01 1.308722019195556641e+01 1.036217021942138672e+01 2.810920000076293945e+00 8.556489944458007812e+00 1.896299958229064941e+00 1.258821964263916016e+01 4.619160175323486328e+00 1.337551975250244141e+01 6.485579967498779297e+00 4.289569854736328125e+00 1.602920055389404297e+00 1.560431957244873047e+01 1.136382007598876953e+01 6.308169841766357422e+00 8.983389854431152344e+00 6.697850227355957031e+00 9.356619834899902344e+00 4.898059844970703125e+00 6.661670207977294922e+00 1.158061981201171875e+01 2.516760110855102539e+00 9.868519783020019531e+00 1.005387020111083984e+01 1.162541961669921875e+01 1.460552024841308594e+01 1.457071971893310547e+01 8.781209945678710938e+00 7.531030178070068359e+00 1.065291976928710938e+01 3.652009963989257812e+00 5.944250106811523438e+00 1.199112033843994141e+01 2.198349952697753906e+00 1.050362014770507812e+01 8.515370368957519531e+00 1.085501956939697266e+01 1.428942012786865234e+01 1.323861980438232422e+01 9.127840042114257812e+00 1.334142017364501953e+01 1.189682006835937500e+01 1.072152042388916016e+01 2.212059974670410156e+00 1.362242031097412109e+01 2.016900062561035156e+00 5.806879997253417969e+00 4.699180126190185547e+00 3.144670009613037109e+00 1.317212009429931641e+01 1.490622043609619141e+01 8.641750335693359375e+00 1.284482002258300781e+01 1.342691993713378906e+01 1.033055973052978516e+01 2.424550056457519531e+00 1.213442039489746094e+01 2.031869888305664062e+00 7.305419921875000000e+00 5.102290153503417969e+00 3.957659959793090820e+00 1.193311977386474609e+01 1.495151996612548828e+01 1.463171958923339844e+01 1.556571960449218750e+01 5.160530090332031250e+00 7.445020198822021484e+00 4.566720008850097656e+00 3.670160055160522461e+00 8.605660438537597656e+00 1.631023025512695312e+01 9.699150085449218750e+00 3.943330049514770508e+00 4.055039882659912109e+00 1.600382041931152344e+01 1.471901988983154297e+01 1.494511985778808594e+01 6.702459812164306641e+00 8.961400032043457031e+00 1.464782047271728516e+01 9.921699762344360352e-01 9.471540451049804688e+00 1.537012004852294922e+01 1.052192020416259766e+01 5.275410175323486328e+00 4.620790004730224609e+00 1.677799969911575317e-01 1.206661987304687500e+01 1.174892044067382812e+01 1.009430050849914551e+00 1.068212032318115234e+01 9.094389915466308594e+00 1.450382041931152344e+01 9.252389907836914062e+00 9.473010063171386719e+00 6.406390190124511719e+00 6.305809974670410156e+00 8.464879989624023438e+00 4.853119850158691406e+00 1.138632011413574219e+01 1.104172039031982422e+01 2.252990007400512695e+00 9.910010337829589844e+00 9.339509963989257812e+00 1.321102046966552734e+01 1.052021980285644531e+01 9.642519950866699219e+00 5.594560146331787109e+00 5.998310089111328125e+00 7.028560161590576172e+00 4.352379798889160156e+00 8.665679931640625000e+00 5.723100185394287109e+00 1.488801956176757812e+01 5.012810230255126953e+00 1.464431953430175781e+01 7.173560142517089844e+00 9.761440277099609375e+00 1.598241996765136719e+01 2.649169921875000000e+00 1.032645988464355469e+01 2.872380018234252930e+00 6.158370018005371094e+00 7.750999927520751953e+00 5.656829833984375000e+00 1.374802017211914062e+01 5.018909931182861328e+00 1.304401969909667969e+01 7.646309852600097656e+00 9.597829818725585938e+00 1.593601989746093750e+01 4.228129863739013672e+00 8.938810348510742188e+00 3.320159912109375000e+00 6.810760021209716797e+00 1.179481983184814453e+01 9.557120323181152344e+00 7.367829799652099609e+00 8.950989723205566406e+00 7.334740161895751953e+00 1.295372009277343750e+01 4.115109920501708984e+00 1.555099934339523315e-01 9.332360267639160156e+00 3.884740114212036133e+00 1.612891960144042969e+01 1.687200069427490234e-01 1.129621982574462891e+01 8.941780090332031250e+00 8.636619567871093750e+00 1.034671020507812500e+01 7.426529884338378906e+00 1.201912021636962891e+01 3.760139942169189453e+00 1.117259979248046875e+00 1.066891956329345703e+01 3.484689950942993164e+00 1.597861957550048828e+01 1.513012027740478516e+01 1.492200016975402832e+00 1.191462039947509766e+01 1.552291965484619141e+01 1.630591964721679688e+01 3.931819915771484375e+00 6.472270011901855469e+00 1.444132041931152344e+01 1.488092041015625000e+01 2.707600116729736328e+00 8.591670036315917969e+00 1.602261924743652344e+01 2.464700043201446533e-01 7.387199997901916504e-01 1.128802013397216797e+01 1.450802040100097656e+01 1.542821979522705078e+01 3.761080026626586914e+00 5.172510147094726562e+00 1.518282032012939453e+01 1.037432003021240234e+01 1.229131984710693359e+01 1.587211990356445312e+01 3.756639957427978516e+00 1.051231956481933594e+01 1.618209958076477051e+00 1.216351985931396484e+01 1.022039985656738281e+01 5.669680118560791016e+00 1.477869987487792969e+00 3.435790061950683594e+00 1.243391990661621094e+01 7.099020004272460938e+00 1.108701992034912109e+01 5.450570106506347656e+00 3.725069999694824219e+00 1.464671993255615234e+01 1.575500011444091797e+00 1.351832008361816406e+01 1.088201999664306641e+01 6.795899868011474609e+00 1.068060040473937988e+00 2.509130001068115234e+00 1.277241992950439453e+01 7.794630050659179688e+00 1.245812034606933594e+01 6.126959800720214844e+00 2.239609956741333008e+00 1.441981983184814453e+01 3.023250102996826172e+00 9.482089996337890625e+00 1.662590026855468750e+00 2.711019992828369141e+00 8.115739822387695312e+00 1.150642013549804688e+01 6.817499995231628418e-01 2.603529930114746094e+00 9.569919586181640625e+00 5.939199924468994141e+00 8.275090217590332031e+00 1.536091995239257812e+01 1.990409970283508301e+00 1.000876998901367188e+01 5.950560092926025391e+00 1.273679971694946289e+00 8.365670204162597656e+00 1.095011997222900391e+01 5.010069847106933594e+00 2.708669900894165039e+00 1.236501979827880859e+01 6.982989788055419922e+00 7.193769931793212891e+00 1.538111972808837891e+01 1.403162002563476562e+01 1.591152000427246094e+01 1.162191963195800781e+01 8.202079772949218750e+00 9.027819633483886719e+00 8.573889732360839844e+00 1.538142013549804688e+01 8.865570068359375000e+00 1.066971969604492188e+01 3.287790060043334961e+00 1.528232002258300781e+01 1.090581989288330078e+01 1.323871994018554688e+01 1.482431983947753906e+01 1.260892009735107422e+01 7.308330059051513672e+00 1.029028034210205078e+01 8.312339782714843750e+00 1.584282016754150391e+01 7.359970092773437500e+00 1.088222026824951172e+01 3.960730075836181641e+00 1.385111999511718750e+01 1.146352005004882812e+01 5.320569992065429688e+00 1.184591960906982422e+01 9.714550018310546875e+00 1.245481967926025391e+01 9.188309669494628906e+00 2.700180053710937500e+00 3.324140071868896484e+00 1.351972007751464844e+01 6.515260219573974609e+00 1.176772022247314453e+01 4.633510112762451172e+00 4.199639797210693359e+00 4.137300014495849609e+00 1.115421962738037109e+01 8.961270332336425781e+00 1.100271987915039062e+01 8.935580253601074219e+00 3.177030086517333984e+00 2.257760047912597656e+00 1.239161968231201172e+01 6.232079982757568359e+00 1.087541961669921875e+01 4.936220169067382812e+00 5.471000194549560547e+00 1.405401992797851562e+01 8.442199826240539551e-01 6.678040027618408203e+00 2.835939884185791016e+00 1.453052043914794922e+01 1.293262004852294922e+01 7.382900118827819824e-01 5.599780082702636719e+00 6.720590114593505859e+00 1.080241966247558594e+01 2.747420072555541992e+00 1.597849965095520020e+00 3.522769927978515625e+00 6.862360000610351562e+00 7.874650001525878906e+00 1.576370000839233398e+00 1.488232040405273438e+01 1.368432044982910156e+01 1.583012008666992188e+01 5.781939983367919922e+00 7.595479965209960938e+00 1.086161994934082031e+01 2.490269899368286133e+00 4.803000018000602722e-02 7.364950180053710938e+00 3.704799890518188477e+00 8.643219947814941406e+00 1.801319956779479980e+00 6.372399926185607910e-01 9.732159614562988281e+00 2.711299955844879150e-01 1.589931964874267578e+01 6.477759838104248047e+00 1.392302036285400391e+01 1.017125034332275391e+01 5.890170097351074219e+00 6.704870223999023438e+00 3.545619964599609375e+00 7.206560134887695312e+00 9.638400077819824219e-01 2.040199935436248779e-01 8.525279998779296875e+00 1.479410052299499512e+00 1.502071952819824219e+01 6.710959911346435547e+00 8.692609786987304688e+00 2.259579896926879883e+00 1.126129984855651855e+00 7.256800174713134766e+00 1.672999933362007141e-02 1.455862045288085938e+01 5.946899890899658203e+00 9.970060348510742188e+00 4.988799989223480225e-01 9.470299720764160156e+00 1.359051990509033203e+01 9.312410354614257812e+00 1.131721973419189453e+01 8.525300025939941406e-01 5.182929992675781250e+00 1.458012008666992188e+01 2.366400003433227539e+00 6.542799949645996094e+00 5.166029930114746094e+00 1.086431980133056641e+01 1.388069987297058105e+00 1.063461971282958984e+01 1.323211956024169922e+01 1.021706008911132812e+01 1.240062046051025391e+01 1.805430054664611816e+00 5.881549835205078125e+00 2.069149971008300781e+00 2.770960092544555664e+00 1.827990055084228516e+00 3.210530042648315430e+00 1.178791999816894531e+01 7.249199748039245605e-01 3.127999976277351379e-02 6.039959907531738281e+00 4.354010105133056641e+00 8.585200309753417969e+00 6.999400138854980469e+00 2.070209980010986328e+00 1.243250012397766113e+00 2.988359928131103516e+00 3.257550001144409180e+00 3.241080045700073242e+00 1.220641994476318359e+01 2.299499988555908203e+00 1.480902004241943359e+01 6.119339942932128906e+00 4.647009849548339844e+00 7.351449966430664062e+00 7.255489826202392578e+00 1.110389947891235352e+00 4.868499934673309326e-01 4.063300132751464844e+00 8.859239578247070312e+00 7.949870109558105469e+00 1.526142024993896484e+01 1.292271995544433594e+01 1.541201972961425781e+01 5.593090057373046875e+00 1.174122047424316406e+01 7.820219993591308594e+00 1.442589998245239258e+00 7.914519786834716797e+00 1.011750030517578125e+01 1.259739995002746582e+00 1.025481033325195312e+01 8.110199928283691406e+00 1.081800013780593872e-01 1.204741954803466797e+01 1.535072040557861328e+01 6.653920173645019531e+00 1.294262027740478516e+01 8.045820236206054688e+00 1.669000089168548584e-02 7.097569942474365234e+00 8.881270408630371094e+00 3.737590074539184570e+00 1.294641971588134766e+01 1.166141986846923828e+01 6.855199813842773438e+00 1.573211956024169922e+01 1.030373001098632812e+01 4.687520027160644531e+00 1.095800027251243591e-01 8.085780143737792969e+00 5.133940219879150391e+00 4.971149921417236328e+00 7.329249858856201172e+00 3.494620084762573242e+00 1.340141963958740234e+01 1.246942043304443359e+01 7.973279953002929688e+00 4.480000119656324387e-03 4.777929782867431641e+00 7.001329898834228516e+00 7.043719768524169922e+00 1.562452030181884766e+01 1.170541954040527344e+01 5.404429912567138672e+00 6.091730117797851562e+00 1.123231983184814453e+01 1.427822017669677734e+01 8.506790161132812500e+00 1.061832046508789062e+01 3.444360017776489258e+00 1.279841995239257812e+01 9.858429908752441406e+00 4.885429859161376953e+00 3.783040046691894531e+00 2.890500068664550781e+00 2.904680013656616211e+00 4.782030105590820312e+00 1.029006004333496094e+01 1.403812026977539062e+01 7.176159858703613281e+00 1.084871959686279297e+01 2.652869939804077148e+00 2.074810028076171875e+00 6.466639995574951172e+00 1.603342056274414062e+01 5.376959800720214844e+00 3.449189901351928711e+00 2.994580030441284180e+00 1.256492042541503906e+01 2.680840015411376953e+00 2.753969907760620117e+00 5.922530174255371094e+00 1.483000069856643677e-01 8.013569831848144531e+00 1.029621028900146484e+01 3.867130041122436523e+00 9.624600410461425781e+00 1.261902046203613281e+01 1.537032032012939453e+01 4.482800066471099854e-01 1.158631992340087891e+01 2.420350074768066406e+00 3.891839981079101562e+00 4.738629817962646484e+00 3.919700086116790771e-01 7.059360027313232422e+00 1.127721977233886719e+01 2.122440099716186523e+00 1.018488979339599609e+01 1.102071952819824219e+01 1.544672012329101562e+01 2.844699919223785400e-01 1.365592002868652344e+01 1.896810054779052734e+00 8.583080291748046875e+00 1.629552078247070312e+01 2.580200135707855225e-01 1.360972023010253906e+01 1.533022022247314453e+01 1.477791976928710938e+01 1.304032039642333984e+01 8.605910301208496094e+00 1.248801994323730469e+01 1.735389947891235352e+00 1.390071964263916016e+01 2.967000007629394531e+00 9.690699577331542969e+00 1.570582008361816406e+01 1.311409950256347656e+00 1.260101985931396484e+01 1.571761989593505859e+01 1.463442039489746094e+01 1.450282001495361328e+01 9.946180343627929688e+00 1.273141956329345703e+01 1.144090056419372559e+00 1.389321994781494141e+01 7.129179954528808594e+00 1.494742012023925781e+01 1.458701992034912109e+01 2.459499984979629517e-01 6.062800288200378418e-01 1.608852005004882812e+01 1.080492019653320312e+01 2.661699950695037842e-01 5.176300048828125000e+00 3.471199989318847656e+00 1.116841983795166016e+01 1.482511997222900391e+01 8.206850051879882812e+00 1.417251968383789062e+01 1.486052036285400391e+01 1.506682014465332031e+01 4.420300126075744629e-01 1.472451972961425781e+01 3.632050037384033203e+00 1.165172004699707031e+01 1.346621990203857422e+01 1.415052032470703125e+01 3.570209980010986328e+00 6.551519870758056641e+00 1.321652030944824219e+01 6.112360000610351562e+00 7.697360038757324219e+00 1.491520047187805176e+00 2.401700019836425781e-01 1.259321975708007812e+01 1.880830049514770508e+00 1.525961971282958984e+01 7.361800074577331543e-01 1.157841968536376953e+01 1.209821987152099609e+01 7.306930065155029297e+00 1.253221988677978516e+01 4.749519824981689453e+00 1.583602046966552734e+01 4.218499958515167236e-01 1.052752017974853516e+01 1.186991977691650391e+01 5.370600223541259766e-01 1.550821971893310547e+01 1.425340056419372559e+00 1.025177001953125000e+01 1.241152000427246094e+01 5.372250080108642578e+00 1.196691989898681641e+01 1.248202037811279297e+01 1.449281978607177734e+01 8.931010246276855469e+00 1.056380033493041992e+00 1.036351013183593750e+01 4.260389804840087891e+00 8.130149841308593750e+00 1.545660018920898438e+00 3.955440044403076172e+00 1.374862003326416016e+01 6.198530197143554688e+00 1.319991970062255859e+01 1.196932029724121094e+01 1.410221958160400391e+01 7.481019973754882812e+00 1.554180026054382324e+00 8.077300190925598145e-01 1.085231971740722656e+01 6.704699993133544922e+00 6.218100190162658691e-01 2.640130043029785156e+00 1.407042026519775391e+01 1.517442035675048828e+01 1.861559987068176270e+00 1.505591964721679688e+01 3.648710012435913086e+00 8.275159835815429688e+00 1.498482036590576172e+01 1.592362022399902344e+01 1.307872009277343750e+01 1.568811988830566406e+01 3.588800132274627686e-01 1.242461967468261719e+01 3.464349985122680664e+00 1.411571979522705078e+01 2.754570007324218750e+00 1.594921970367431641e+01 4.268380165100097656e+00 7.896540164947509766e+00 1.362112045288085938e+01 1.440371990203857422e+01 1.327352046966552734e+01 1.599141979217529297e+01 1.533672046661376953e+01 1.310951995849609375e+01 3.366250038146972656e+00 1.984740018844604492e+00 2.781749963760375977e+00 1.577132034301757812e+01 1.448392009735107422e+01 1.434620022773742676e+00 1.055512046813964844e+01 1.350811958312988281e+01 7.868500232696533203e+00 5.412360191345214844e+00 2.479229927062988281e+00 6.035000085830688477e-01 6.069409847259521484e+00 3.227979898452758789e+00 1.855970025062561035e+00 1.631201934814453125e+01 9.192009925842285156e+00 1.161952018737792969e+01 7.881750106811523438e+00 1.278322029113769531e+01 6.298699855804443359e+00 5.534870147705078125e+00 3.499209880828857422e+00 1.746260046958923340e+00 5.808460235595703125e+00 5.881740093231201172e+00 1.990900039672851562e-01 1.544921970367431641e+01 1.314552021026611328e+01 6.986519813537597656e+00 8.803620338439941406e+00 1.053542041778564453e+01 6.734079837799072266e+00 3.591419935226440430e+00 6.380889892578125000e+00 4.820680141448974609e+00 1.030121994018554688e+01 1.149122047424316406e+01 1.314272022247314453e+01 3.083859920501708984e+00 1.173112010955810547e+01 6.098159790039062500e+00 9.194179534912109375e+00 9.862279891967773438e+00 8.013680458068847656e+00 4.220930099487304688e+00 7.178719997406005859e+00 4.009160041809082031e+00 1.132252025604248047e+01 1.442352008819580078e+01 7.015359878540039062e+00 7.151740074157714844e+00 7.386229991912841797e+00 1.617472076416015625e+01 4.571080207824707031e+00 5.485720157623291016e+00 6.482130050659179688e+00 9.184470176696777344e+00 5.519300103187561035e-01 5.036870002746582031e+00 1.541961956024169922e+01 1.511511993408203125e+01 7.590330123901367188e+00 8.775540351867675781e+00 7.712009906768798828e+00 1.488502025604248047e+01 5.472020149230957031e+00 6.903800010681152344e+00 6.932360172271728516e+00 9.909420013427734375e+00 1.619382095336914062e+01 6.412439823150634766e+00 1.543782043457031250e+01 2.976330041885375977e+00 2.272100001573562622e-01 2.424959897994995117e+00 1.177931976318359375e+01 1.085002040863037109e+01 1.338621997833251953e+01 1.429362010955810547e+01 1.323571968078613281e+01 8.681559562683105469e+00 1.574081993103027344e+01 1.090312004089355469e+01 1.828080058097839355e+00 4.549180030822753906e+00 1.628904914855957031e+01 2.543060064315795898e+00 1.225811958312988281e+01 1.238111972808837891e+01 1.327071952819824219e+01 1.334932041168212891e+01 1.323311996459960938e+01 7.361460208892822266e+00 9.485079765319824219e+00 5.831130027770996094e+00 6.376900076866149902e-01 1.195662021636962891e+01 1.137852001190185547e+01 9.254650115966796875e+00 8.554030418395996094e+00 1.260912036895751953e+01 6.803540229797363281e+00 3.231199979782104492e+00 1.437481975555419922e+01 2.814699888229370117e+00 4.685160160064697266e+00 3.336469888687133789e+00 5.184810161590576172e+00 1.301342010498046875e+01 1.202812004089355469e+01 1.034020042419433594e+01 1.120952033996582031e+01 1.449962043762207031e+01 3.840179920196533203e+00 2.690360069274902344e+00 1.391112041473388672e+01 4.227469921112060547e+00 4.416100025177001953e+00 4.329370021820068359e+00 6.339660167694091797e+00 1.409652042388916016e+01 1.132221984863281250e+01 1.628421974182128906e+01 1.506912040710449219e+01 5.909450054168701172e+00 2.470659971237182617e+00 1.330601978302001953e+01 4.861390113830566406e+00 1.402799934148788452e-01 1.169752025604248047e+01 1.334152030944824219e+01 5.662059783935546875e+00 1.304522037506103516e+01 1.168832015991210938e+01 1.516761970520019531e+01 1.568931961059570312e+01 5.914509773254394531e+00 9.957100152969360352e-01 1.311231994628906250e+01 4.443930149078369141e+00 1.497852039337158203e+01 1.095411968231201172e+01 1.292271995544433594e+01 7.009510040283203125e+00 3.288510084152221680e+00 3.670209884643554688e+00 1.201181983947753906e+01 8.381799697875976562e+00 1.204671955108642578e+01 1.562522029876708984e+01 3.589869976043701172e+00 8.516719818115234375e+00 4.827169895172119141e+00 1.574162006378173828e+01 1.300452041625976562e+01 1.044032001495361328e+01 1.893079996109008789e+00 4.202799797058105469e+00 1.145042037963867188e+01 8.692219734191894531e+00 1.085892009735107422e+01 1.458261966705322266e+01 2.488339900970458984e+00 8.754320144653320312e+00 3.656879901885986328e+00 1.438801956176757812e+01 1.372992038726806641e+01 1.104852008819580078e+01 1.369991970062255859e+01 1.036408042907714844e+01 1.254942035675048828e+01 1.191602039337158203e+01 4.047760009765625000e+00 1.293671989440917969e+01 7.071929931640625000e+00 5.063700199127197266e+00 1.568740010261535645e+00 3.643079996109008789e+00 6.300749778747558594e+00 1.638702011108398438e+01 2.860850095748901367e+00 8.053560256958007812e+00 1.019510030746459961e+00 1.227731990814208984e+01 5.485720157623291016e+00 1.304001998901367188e+01 7.019060134887695312e+00 3.507040023803710938e+00 1.390949964523315430e+00 1.524781990051269531e+01 1.212022018432617188e+01 6.846509933471679688e+00