
     Program PWSCF v.5.4.0 starts on 22Sep2019 at 18: 9:58 

     This program is part of the open-source Quantum ESPRESSO suite
     for quantum simulation of materials; please cite
         "P. Giannozzi et al., J. Phys.:Condens. Matter 21 395502 (2009);
          URL http://www.quantum-espresso.org", 
     in publications or presentations arising from this work. More details at
     http://www.quantum-espresso.org/quote

           HOST :    @host@
           ARCH :    
             CC :    cc
            CPP :    cpp
            F90 :    mpif90
            F77 :    gfortran
         DFLAGS :    -D__GFORTRAN -D__STD_F95 -D__FFTW3 -D__MPI -D__PARA
      BLAS LIBS :    -lopenblas
    LAPACK LIBS :    -lopenblas
       FFT LIBS :    -lfftw3
      MASS LIBS :    

     Parallel version (MPI), running on    28 processors
     R & G space division:  proc/nbgrp/npool/nimage =      28
     Waiting for input...
     Reading input from standard input
Warning: card &IONS ignored
Warning: card / ignored
Warning: card &CELL ignored
Warning: card / ignored

     Current dimensions of program PWSCF are:
     Max number of different atomic species (ntypx) = 10
     Max number of k-points (npk) =  40000
     Max angular momentum in pseudopotentials (lmaxx) =  3

     IMPORTANT: XC functional enforced from input :
     Exchange-correlation      = PBE ( 1  4  3  4 0 0)
     Any further DFT definition will be discarded
     Please, verify this is what you really want


     gamma-point specific algorithms are used

     Subspace diagonalization in iterative solution of the eigenvalue problem:
     a serial algorithm will be used


     Parallelization info
     --------------------
     sticks:   dense  smooth     PW     G-vecs:    dense   smooth      PW
     Min         445     445    110                37558    37558    4694
     Max         448     448    112                37564    37564    4708
     Sum       12517   12517   3125              1051747  1051747  131683
     Tot        6259    6259   1563



     bravais-lattice index     =            1
     lattice parameter (alat)  =      18.8973  a.u.
     unit-cell volume          =    6748.3346 (a.u.)^3
     number of atoms/cell      =            5
     number of atomic types    =            2
     number of electrons       =         8.00
     number of Kohn-Sham states=            4
     kinetic-energy cutoff     =     110.0000  Ry
     charge density cutoff     =     440.0000  Ry
     convergence threshold     =      1.0E-06
     mixing beta               =       0.5000
     number of iterations used =            8  plain     mixing
     Exchange-correlation      = PBE ( 1  4  3  4 0 0)

     celldm(1)=  18.897261  celldm(2)=   0.000000  celldm(3)=   0.000000
     celldm(4)=   0.000000  celldm(5)=   0.000000  celldm(6)=   0.000000

     crystal axes: (cart. coord. in units of alat)
               a(1) = (   1.000000   0.000000   0.000000 )  
               a(2) = (   0.000000   1.000000   0.000000 )  
               a(3) = (   0.000000   0.000000   1.000000 )  

     reciprocal axes: (cart. coord. in units 2 pi/alat)
               b(1) = (  1.000000  0.000000  0.000000 )  
               b(2) = (  0.000000  1.000000  0.000000 )  
               b(3) = (  0.000000  0.000000  1.000000 )  


     PseudoPot. # 1 for  H read from file:
     ../pseudo/H.tm.pbe.UPF
     MD5 check sum: 4b614d66af87240b7a5107bfa527a767
     Pseudo is Norm-conserving, Zval =  1.0
     Generated using "atomic" code by A. Dal Corso  v.5.2.0
     Using radial grid of  929 points,  0 beta functions with: 

     PseudoPot. # 2 for  C read from file:
     ../pseudo/C.tm.pbe.UPF
     MD5 check sum: a4f27fcb9b24331b00ace8e732a7e062
     Pseudo is Norm-conserving, Zval =  4.0
     Generated using "atomic" code by A. Dal Corso  v.5.2.0
     Using radial grid of 1073 points,  1 beta functions with: 
                l(1) =   1

     atomic species   valence    mass     pseudopotential
        H              1.00     1.00000      H( 1.00)
        C              4.00     1.00000      C( 1.00)

     No symmetry found



   Cartesian axes

     site n.     atom                  positions (alat units)
         1           H   tau(   1) = (   0.4957420   0.4173420   0.3599610  )
         2           H   tau(   2) = (   0.3573510   0.4910080   0.4421820  )
         3           H   tau(   3) = (   0.5191610   0.5740560   0.4414530  )
         4           H   tau(   4) = (   0.4976940   0.4226890   0.5336390  )
         5           C   tau(   5) = (   0.4665400   0.4787370   0.4442530  )

     number of k points=     1
                       cart. coord. in units 2pi/alat
        k(    1) = (   0.0000000   0.0000000   0.0000000), wk =   2.0000000

     Dense  grid:   525874 G-vectors     FFT dimensions: ( 128, 128, 128)

     Largest allocated arrays     est. size (Mb)     dimensions
        Kohn-Sham Wavefunctions         0.14 Mb     (    2354,    4)
        NL pseudopotentials             0.11 Mb     (    2354,    3)
        Each V/rho on FFT grid          1.25 Mb     (   81920)
        Each G-vector array             0.14 Mb     (   18782)
        G-vector shells                 0.02 Mb     (    2785)
     Largest temporary arrays     est. size (Mb)     dimensions
        Auxiliary wavefunctions         0.29 Mb     (    2354,   16)
        Each subspace H/S matrix        0.00 Mb     (      16,   16)
        Each <psi_i|beta_j> matrix      0.00 Mb     (       3,    4)
        Arrays for rho mixing          10.00 Mb     (   81920,    8)

     Initial potential from superposition of free atoms
     Check: negative starting charge=   -0.000386

     starting charge    7.99992, renormalised to    8.00000

     negative rho (up, down):  3.864E-04 0.000E+00
     Starting wfc are    8 randomized atomic wfcs

     total cpu time spent up to now is        2.8 secs

     per-process dynamical memory:   430.7 Mb

     Self-consistent Calculation

     iteration #  1     ecut=   110.00 Ry     beta=0.50
     Davidson diagonalization with overlap
     ethr =  1.00E-02,  avg # of iterations =  2.0

     negative rho (up, down):  1.823E-04 0.000E+00

     total cpu time spent up to now is        3.3 secs

     total energy              =     -16.01945893 Ry
     Harris-Foulkes estimate   =     -16.41409251 Ry
     estimated scf accuracy    <       0.70101943 Ry

     iteration #  2     ecut=   110.00 Ry     beta=0.50
     Davidson diagonalization with overlap
     ethr =  8.76E-03,  avg # of iterations =  2.0

     negative rho (up, down):  9.521E-05 0.000E+00

     total cpu time spent up to now is        3.9 secs

     total energy              =     -16.15356724 Ry
     Harris-Foulkes estimate   =     -16.17245983 Ry
     estimated scf accuracy    <       0.04935659 Ry

     iteration #  3     ecut=   110.00 Ry     beta=0.50
     Davidson diagonalization with overlap
     ethr =  6.17E-04,  avg # of iterations =  1.0

     negative rho (up, down):  4.928E-06 0.000E+00

     total cpu time spent up to now is        4.3 secs

     total energy              =     -16.15172450 Ry
     Harris-Foulkes estimate   =     -16.15715580 Ry
     estimated scf accuracy    <       0.01140199 Ry

     iteration #  4     ecut=   110.00 Ry     beta=0.50
     Davidson diagonalization with overlap
     ethr =  1.43E-04,  avg # of iterations =  2.0

     negative rho (up, down):  4.998E-06 0.000E+00

     total cpu time spent up to now is        4.8 secs

     total energy              =     -16.15360766 Ry
     Harris-Foulkes estimate   =     -16.15573054 Ry
     estimated scf accuracy    <       0.00490181 Ry

     iteration #  5     ecut=   110.00 Ry     beta=0.50
     Davidson diagonalization with overlap
     ethr =  6.13E-05,  avg # of iterations =  1.0

     negative rho (up, down):  1.567E-06 0.000E+00

     total cpu time spent up to now is        5.3 secs

     total energy              =     -16.15381746 Ry
     Harris-Foulkes estimate   =     -16.15401886 Ry
     estimated scf accuracy    <       0.00037756 Ry

     iteration #  6     ecut=   110.00 Ry     beta=0.50
     Davidson diagonalization with overlap
     ethr =  4.72E-06,  avg # of iterations =  3.0

     negative rho (up, down):  2.364E-08 0.000E+00

     total cpu time spent up to now is        6.0 secs

     total energy              =     -16.15402989 Ry
     Harris-Foulkes estimate   =     -16.15407344 Ry
     estimated scf accuracy    <       0.00009250 Ry

     iteration #  7     ecut=   110.00 Ry     beta=0.50
     Davidson diagonalization with overlap
     ethr =  1.16E-06,  avg # of iterations =  2.0

     total cpu time spent up to now is        6.5 secs

     total energy              =     -16.15404593 Ry
     Harris-Foulkes estimate   =     -16.15404625 Ry
     estimated scf accuracy    <       0.00000142 Ry

     iteration #  8     ecut=   110.00 Ry     beta=0.50
     Davidson diagonalization with overlap
     ethr =  1.77E-08,  avg # of iterations =  1.0

     total cpu time spent up to now is        7.1 secs

     End of self-consistent calculation

          k = 0.0000 0.0000 0.0000 ( 65842 PWs)   bands (ev):

   -16.8529  -9.3975  -9.2975  -9.0812

     highest occupied level (ev):    -9.0812

!    total energy              =     -16.15404543 Ry
     Harris-Foulkes estimate   =     -16.15404603 Ry
     estimated scf accuracy    <       0.00000085 Ry

     The total energy is the sum of the following terms:

     one-electron contribution =     -40.32471542 Ry
     hartree contribution      =      20.98868104 Ry
     xc contribution           =      -6.35099940 Ry
     ewald contribution        =       9.53298834 Ry

     convergence has been achieved in   8 iterations

     Forces acting on atoms (Ry/au):

     atom    1 type  1   force =     0.00529356   -0.00473951   -0.02040011
     atom    2 type  1   force =     0.00568624    0.00457072    0.00432441
     atom    3 type  1   force =    -0.00104179    0.00849312   -0.00161817
     atom    4 type  1   force =    -0.00667834    0.00674738    0.00323915
     atom    5 type  2   force =    -0.00325968   -0.01507171    0.01445472

     Total force =     0.034084     Total SCF correction =     0.000560


     entering subroutine stress ...

          total   stress  (Ry/bohr**3)                   (kbar)     P=   -0.02
  -0.00000406   0.00000006  -0.00000294         -0.60      0.01     -0.43
   0.00000006   0.00000016   0.00000271          0.01      0.02      0.40
  -0.00000294   0.00000271   0.00000359         -0.43      0.40      0.53


     init_run     :      2.42s CPU      2.45s WALL (       1 calls)
     electrons    :      4.16s CPU      4.24s WALL (       1 calls)
     forces       :      1.06s CPU      1.06s WALL (       1 calls)
     stress       :      1.10s CPU      1.10s WALL (       1 calls)

     Called by init_run:
     wfcinit      :      0.11s CPU      0.11s WALL (       1 calls)
     potinit      :      0.95s CPU      0.95s WALL (       1 calls)

     Called by electrons:
     c_bands      :      1.96s CPU      1.99s WALL (       8 calls)
     sum_band     :      0.43s CPU      0.44s WALL (       8 calls)
     v_of_rho     :      1.75s CPU      1.77s WALL (       9 calls)
     mix_rho      :      0.21s CPU      0.21s WALL (       8 calls)

     Called by c_bands:
     init_us_2    :      0.03s CPU      0.04s WALL (      17 calls)
     regterg      :      1.94s CPU      1.96s WALL (       8 calls)

     Called by sum_band:

     Called by *egterg:
     h_psi        :      1.99s CPU      2.01s WALL (      23 calls)
     g_psi        :      0.01s CPU      0.01s WALL (      14 calls)
     rdiaghg      :      0.00s CPU      0.00s WALL (      22 calls)

     Called by h_psi:
     add_vuspsi   :      0.00s CPU      0.00s WALL (      23 calls)

     General routines
     calbec       :      0.57s CPU      0.57s WALL (      28 calls)
     fft          :      1.71s CPU      1.73s WALL (     106 calls)
     fftw         :      1.44s CPU      1.46s WALL (     112 calls)

     Parallel routines
     fft_scatter  :      1.50s CPU      1.53s WALL (     218 calls)

     PWSCF        :     9.11s CPU         9.25s WALL


   This run was terminated on:  18:10: 7  22Sep2019            

=------------------------------------------------------------------------------=
   JOB DONE.
=------------------------------------------------------------------------------=
