
     Program PWSCF v.5.4.0 starts on 22Sep2019 at 18:27:15 

     This program is part of the open-source Quantum ESPRESSO suite
     for quantum simulation of materials; please cite
         "P. Giannozzi et al., J. Phys.:Condens. Matter 21 395502 (2009);
          URL http://www.quantum-espresso.org", 
     in publications or presentations arising from this work. More details at
     http://www.quantum-espresso.org/quote

           HOST :    @host@
           ARCH :    
             CC :    cc
            CPP :    cpp
            F90 :    mpif90
            F77 :    gfortran
         DFLAGS :    -D__GFORTRAN -D__STD_F95 -D__FFTW3 -D__MPI -D__PARA
      BLAS LIBS :    -lopenblas
    LAPACK LIBS :    -lopenblas
       FFT LIBS :    -lfftw3
      MASS LIBS :    

     Parallel version (MPI), running on    28 processors
     R & G space division:  proc/nbgrp/npool/nimage =      28
     Waiting for input...
     Reading input from standard input
Warning: card &IONS ignored
Warning: card / ignored
Warning: card &CELL ignored
Warning: card / ignored

     Current dimensions of program PWSCF are:
     Max number of different atomic species (ntypx) = 10
     Max number of k-points (npk) =  40000
     Max angular momentum in pseudopotentials (lmaxx) =  3

     IMPORTANT: XC functional enforced from input :
     Exchange-correlation      = PBE ( 1  4  3  4 0 0)
     Any further DFT definition will be discarded
     Please, verify this is what you really want


     gamma-point specific algorithms are used

     Subspace diagonalization in iterative solution of the eigenvalue problem:
     a serial algorithm will be used


     Parallelization info
     --------------------
     sticks:   dense  smooth     PW     G-vecs:    dense   smooth      PW
     Min         445     445    110                37558    37558    4694
     Max         448     448    112                37564    37564    4708
     Sum       12517   12517   3125              1051747  1051747  131683
     Tot        6259    6259   1563



     bravais-lattice index     =            1
     lattice parameter (alat)  =      18.8973  a.u.
     unit-cell volume          =    6748.3346 (a.u.)^3
     number of atoms/cell      =            5
     number of atomic types    =            2
     number of electrons       =         8.00
     number of Kohn-Sham states=            4
     kinetic-energy cutoff     =     110.0000  Ry
     charge density cutoff     =     440.0000  Ry
     convergence threshold     =      1.0E-06
     mixing beta               =       0.5000
     number of iterations used =            8  plain     mixing
     Exchange-correlation      = PBE ( 1  4  3  4 0 0)

     celldm(1)=  18.897261  celldm(2)=   0.000000  celldm(3)=   0.000000
     celldm(4)=   0.000000  celldm(5)=   0.000000  celldm(6)=   0.000000

     crystal axes: (cart. coord. in units of alat)
               a(1) = (   1.000000   0.000000   0.000000 )  
               a(2) = (   0.000000   1.000000   0.000000 )  
               a(3) = (   0.000000   0.000000   1.000000 )  

     reciprocal axes: (cart. coord. in units 2 pi/alat)
               b(1) = (  1.000000  0.000000  0.000000 )  
               b(2) = (  0.000000  1.000000  0.000000 )  
               b(3) = (  0.000000  0.000000  1.000000 )  


     PseudoPot. # 1 for  H read from file:
     ../pseudo/H.tm.pbe.UPF
     MD5 check sum: 4b614d66af87240b7a5107bfa527a767
     Pseudo is Norm-conserving, Zval =  1.0
     Generated using "atomic" code by A. Dal Corso  v.5.2.0
     Using radial grid of  929 points,  0 beta functions with: 

     PseudoPot. # 2 for  C read from file:
     ../pseudo/C.tm.pbe.UPF
     MD5 check sum: a4f27fcb9b24331b00ace8e732a7e062
     Pseudo is Norm-conserving, Zval =  4.0
     Generated using "atomic" code by A. Dal Corso  v.5.2.0
     Using radial grid of 1073 points,  1 beta functions with: 
                l(1) =   1

     atomic species   valence    mass     pseudopotential
        H              1.00     1.00000      H( 1.00)
        C              4.00     1.00000      C( 1.00)

     No symmetry found



   Cartesian axes

     site n.     atom                  positions (alat units)
         1           H   tau(   1) = (   0.5469250   0.4202680   0.3620760  )
         2           H   tau(   2) = (   0.4049120   0.4931610   0.4530520  )
         3           H   tau(   3) = (   0.5665060   0.5775290   0.4618180  )
         4           H   tau(   4) = (   0.5456200   0.4179270   0.5418340  )
         5           C   tau(   5) = (   0.5159280   0.4780310   0.4538000  )

     number of k points=     1
                       cart. coord. in units 2pi/alat
        k(    1) = (   0.0000000   0.0000000   0.0000000), wk =   2.0000000

     Dense  grid:   525874 G-vectors     FFT dimensions: ( 128, 128, 128)

     Largest allocated arrays     est. size (Mb)     dimensions
        Kohn-Sham Wavefunctions         0.14 Mb     (    2354,    4)
        NL pseudopotentials             0.11 Mb     (    2354,    3)
        Each V/rho on FFT grid          1.25 Mb     (   81920)
        Each G-vector array             0.14 Mb     (   18782)
        G-vector shells                 0.02 Mb     (    2785)
     Largest temporary arrays     est. size (Mb)     dimensions
        Auxiliary wavefunctions         0.29 Mb     (    2354,   16)
        Each subspace H/S matrix        0.00 Mb     (      16,   16)
        Each <psi_i|beta_j> matrix      0.00 Mb     (       3,    4)
        Arrays for rho mixing          10.00 Mb     (   81920,    8)

     Initial potential from superposition of free atoms
     Check: negative starting charge=   -0.000377

     starting charge    7.99992, renormalised to    8.00000

     negative rho (up, down):  3.770E-04 0.000E+00
     Starting wfc are    8 randomized atomic wfcs

     total cpu time spent up to now is       31.5 secs

     per-process dynamical memory:   430.7 Mb

     Self-consistent Calculation

     iteration #  1     ecut=   110.00 Ry     beta=0.50
     Davidson diagonalization with overlap
     ethr =  1.00E-02,  avg # of iterations =  2.0

     negative rho (up, down):  1.786E-04 0.000E+00

     total cpu time spent up to now is       32.0 secs

     total energy              =     -16.02546521 Ry
     Harris-Foulkes estimate   =     -16.38680383 Ry
     estimated scf accuracy    <       0.64341359 Ry

     iteration #  2     ecut=   110.00 Ry     beta=0.50
     Davidson diagonalization with overlap
     ethr =  8.04E-03,  avg # of iterations =  2.0

     negative rho (up, down):  9.474E-05 0.000E+00

     total cpu time spent up to now is       32.6 secs

     total energy              =     -16.15072791 Ry
     Harris-Foulkes estimate   =     -16.17084558 Ry
     estimated scf accuracy    <       0.05170001 Ry

     iteration #  3     ecut=   110.00 Ry     beta=0.50
     Davidson diagonalization with overlap
     ethr =  6.46E-04,  avg # of iterations =  1.0

     negative rho (up, down):  6.108E-06 0.000E+00

     total cpu time spent up to now is       32.9 secs

     total energy              =     -16.14943263 Ry
     Harris-Foulkes estimate   =     -16.15493369 Ry
     estimated scf accuracy    <       0.01159041 Ry

     iteration #  4     ecut=   110.00 Ry     beta=0.50
     Davidson diagonalization with overlap
     ethr =  1.45E-04,  avg # of iterations =  3.0

     negative rho (up, down):  4.334E-06 0.000E+00

     total cpu time spent up to now is       33.5 secs

     total energy              =     -16.15136260 Ry
     Harris-Foulkes estimate   =     -16.15414067 Ry
     estimated scf accuracy    <       0.00655329 Ry

     iteration #  5     ecut=   110.00 Ry     beta=0.50
     Davidson diagonalization with overlap
     ethr =  8.19E-05,  avg # of iterations =  2.0

     total cpu time spent up to now is       34.0 secs

     total energy              =     -16.15200204 Ry
     Harris-Foulkes estimate   =     -16.15206737 Ry
     estimated scf accuracy    <       0.00014560 Ry

     iteration #  6     ecut=   110.00 Ry     beta=0.50
     Davidson diagonalization with overlap
     ethr =  1.82E-06,  avg # of iterations =  2.0

     negative rho (up, down):  6.394E-08 0.000E+00

     total cpu time spent up to now is       34.6 secs

     total energy              =     -16.15204159 Ry
     Harris-Foulkes estimate   =     -16.15204280 Ry
     estimated scf accuracy    <       0.00000467 Ry

     iteration #  7     ecut=   110.00 Ry     beta=0.50
     Davidson diagonalization with overlap
     ethr =  5.84E-08,  avg # of iterations =  2.0

     total cpu time spent up to now is       35.2 secs

     total energy              =     -16.15204128 Ry
     Harris-Foulkes estimate   =     -16.15204364 Ry
     estimated scf accuracy    <       0.00000507 Ry

     iteration #  8     ecut=   110.00 Ry     beta=0.50
     Davidson diagonalization with overlap
     ethr =  5.84E-08,  avg # of iterations =  2.0

     total cpu time spent up to now is       35.7 secs

     End of self-consistent calculation

          k = 0.0000 0.0000 0.0000 ( 65842 PWs)   bands (ev):

   -16.6654  -9.2874  -9.2174  -8.9914

     highest occupied level (ev):    -8.9914

!    total energy              =     -16.15204182 Ry
     Harris-Foulkes estimate   =     -16.15204188 Ry
     estimated scf accuracy    <       0.00000018 Ry

     The total energy is the sum of the following terms:

     one-electron contribution =     -39.57590592 Ry
     hartree contribution      =      20.60681796 Ry
     xc contribution           =      -6.28325857 Ry
     ewald contribution        =       9.10030471 Ry

     convergence has been achieved in   8 iterations

     Forces acting on atoms (Ry/au):

     atom    1 type  1   force =    -0.00818038    0.02716175    0.02516097
     atom    2 type  1   force =     0.02847056   -0.00560028    0.00078903
     atom    3 type  1   force =    -0.01024606   -0.02521064   -0.01111550
     atom    4 type  1   force =    -0.00812478    0.00617479   -0.00668037
     atom    5 type  2   force =    -0.00191934   -0.00252563   -0.00815413

     Total force =     0.058049     Total SCF correction =     0.000112


     entering subroutine stress ...

          total   stress  (Ry/bohr**3)                   (kbar)     P=   -1.87
  -0.00001352   0.00000104  -0.00000019         -1.99      0.15     -0.03
   0.00000104  -0.00001452  -0.00000601          0.15     -2.14     -0.88
  -0.00000019  -0.00000601  -0.00001019         -0.03     -0.88     -1.50


     init_run     :      5.04s CPU      5.05s WALL (       1 calls)
     electrons    :      4.07s CPU      4.15s WALL (       1 calls)
     forces       :      0.91s CPU      0.91s WALL (       1 calls)
     stress       :      1.10s CPU      1.10s WALL (       1 calls)

     Called by init_run:
     wfcinit      :      0.10s CPU      0.10s WALL (       1 calls)
     potinit      :      0.95s CPU      0.95s WALL (       1 calls)

     Called by electrons:
     c_bands      :      1.88s CPU      1.91s WALL (       8 calls)
     sum_band     :      0.44s CPU      0.44s WALL (       8 calls)
     v_of_rho     :      1.72s CPU      1.77s WALL (       9 calls)
     mix_rho      :      0.21s CPU      0.21s WALL (       8 calls)

     Called by c_bands:
     init_us_2    :      0.04s CPU      0.04s WALL (      17 calls)
     regterg      :      1.85s CPU      1.88s WALL (       8 calls)

     Called by sum_band:

     Called by *egterg:
     h_psi        :      1.90s CPU      1.92s WALL (      25 calls)
     g_psi        :      0.01s CPU      0.01s WALL (      16 calls)
     rdiaghg      :      0.00s CPU      0.00s WALL (      24 calls)

     Called by h_psi:
     add_vuspsi   :      0.00s CPU      0.00s WALL (      25 calls)

     General routines
     calbec       :      0.57s CPU      0.57s WALL (      30 calls)
     fft          :      1.68s CPU      1.73s WALL (     106 calls)
     fftw         :      1.33s CPU      1.36s WALL (     120 calls)

     Parallel routines
     fft_scatter  :      1.31s CPU      1.35s WALL (     226 calls)

     PWSCF        :    37.58s CPU        37.69s WALL


   This run was terminated on:  18:27:53  22Sep2019            

=------------------------------------------------------------------------------=
   JOB DONE.
=------------------------------------------------------------------------------=
