   6   6   0   0
  0.5000000E+03  0.3000000E-08  0.1000000E-08  0.1000000E-08  0.5000000E-15
  1.000000000000000E-004
  CAR 
 unknown system                          
      1.49021159    -26.65578876  301     -6.19130100      1.00000000
    -26.656  0.0000E+00  0.0000E+00
    -26.562  0.0000E+00  0.0000E+00
    -26.468  0.0000E+00  0.0000E+00
    -26.374  0.0000E+00  0.0000E+00
    -26.281  0.0000E+00  0.0000E+00
    -26.187  0.0000E+00  0.0000E+00
    -26.093  0.0000E+00  0.0000E+00
    -25.999  0.0000E+00  0.0000E+00
    -25.905  0.0000E+00  0.0000E+00
    -25.811  0.0000E+00  0.0000E+00
    -25.718  0.0000E+00  0.0000E+00
    -25.624  0.2809E-10  0.2635E-11
    -25.530  0.1503E-03  0.1410E-04
    -25.436  0.9728E+00  0.9128E-01
    -25.342  0.1678E+02  0.1665E+01
    -25.248  0.3563E+01  0.2000E+01
    -25.155  0.3157E-02  0.2000E+01
    -25.061  0.3794E-08  0.2000E+01
    -24.967  0.0000E+00  0.2000E+01
    -24.873  0.0000E+00  0.2000E+01
    -24.779  0.0000E+00  0.2000E+01
    -24.686  0.0000E+00  0.2000E+01
    -24.592  0.0000E+00  0.2000E+01
    -24.498  0.0000E+00  0.2000E+01
    -24.404  0.0000E+00  0.2000E+01
    -24.310  0.7810E-13  0.2000E+01
    -24.216  0.3183E-05  0.2000E+01
    -24.123  0.1437E+00  0.2013E+01
    -24.029  0.1206E+02  0.3145E+01
    -23.935  0.9063E+01  0.3995E+01
    -23.841  0.4860E-01  0.4000E+01
    -23.747  0.4278E-06  0.4000E+01
    -23.654  0.4733E-14  0.4000E+01
    -23.560  0.0000E+00  0.4000E+01
    -23.466  0.0000E+00  0.4000E+01
    -23.372  0.0000E+00  0.4000E+01
    -23.278  0.0000E+00  0.4000E+01
    -23.184  0.0000E+00  0.4000E+01
    -23.091  0.0000E+00  0.4000E+01
    -22.997  0.0000E+00  0.4000E+01
    -22.903  0.0000E+00  0.4000E+01
    -22.809  0.0000E+00  0.4000E+01
    -22.715  0.0000E+00  0.4000E+01
    -22.622  0.0000E+00  0.4000E+01
    -22.528  0.0000E+00  0.4000E+01
    -22.434  0.0000E+00  0.4000E+01
    -22.340  0.0000E+00  0.4000E+01
    -22.246  0.0000E+00  0.4000E+01
    -22.152  0.0000E+00  0.4000E+01
    -22.059  0.0000E+00  0.4000E+01
    -21.965  0.0000E+00  0.4000E+01
    -21.871  0.0000E+00  0.4000E+01
    -21.777  0.0000E+00  0.4000E+01
    -21.683  0.0000E+00  0.4000E+01
    -21.590  0.0000E+00  0.4000E+01
    -21.496  0.0000E+00  0.4000E+01
    -21.402  0.0000E+00  0.4000E+01
    -21.308  0.0000E+00  0.4000E+01
    -21.214  0.0000E+00  0.4000E+01
    -21.120  0.0000E+00  0.4000E+01
    -21.027  0.0000E+00  0.4000E+01
    -20.933  0.0000E+00  0.4000E+01
    -20.839  0.0000E+00  0.4000E+01
    -20.745  0.0000E+00  0.4000E+01
    -20.651  0.0000E+00  0.4000E+01
    -20.557  0.0000E+00  0.4000E+01
    -20.464  0.0000E+00  0.4000E+01
    -20.370  0.0000E+00  0.4000E+01
    -20.276  0.0000E+00  0.4000E+01
    -20.182  0.0000E+00  0.4000E+01
    -20.088  0.0000E+00  0.4000E+01
    -19.995  0.0000E+00  0.4000E+01
    -19.901  0.0000E+00  0.4000E+01
    -19.807  0.0000E+00  0.4000E+01
    -19.713  0.0000E+00  0.4000E+01
    -19.619  0.0000E+00  0.4000E+01
    -19.525  0.0000E+00  0.4000E+01
    -19.432  0.0000E+00  0.4000E+01
    -19.338  0.0000E+00  0.4000E+01
    -19.244  0.0000E+00  0.4000E+01
    -19.150  0.0000E+00  0.4000E+01
    -19.056  0.0000E+00  0.4000E+01
    -18.963  0.0000E+00  0.4000E+01
    -18.869  0.0000E+00  0.4000E+01
    -18.775  0.0000E+00  0.4000E+01
    -18.681  0.0000E+00  0.4000E+01
    -18.587  0.0000E+00  0.4000E+01
    -18.493  0.0000E+00  0.4000E+01
    -18.400  0.0000E+00  0.4000E+01
    -18.306  0.0000E+00  0.4000E+01
    -18.212  0.0000E+00  0.4000E+01
    -18.118  0.0000E+00  0.4000E+01
    -18.024  0.0000E+00  0.4000E+01
    -17.931  0.0000E+00  0.4000E+01
    -17.837  0.0000E+00  0.4000E+01
    -17.743  0.0000E+00  0.4000E+01
    -17.649  0.0000E+00  0.4000E+01
    -17.555  0.0000E+00  0.4000E+01
    -17.461  0.0000E+00  0.4000E+01
    -17.368  0.0000E+00  0.4000E+01
    -17.274  0.0000E+00  0.4000E+01
    -17.180  0.0000E+00  0.4000E+01
    -17.086  0.0000E+00  0.4000E+01
    -16.992  0.0000E+00  0.4000E+01
    -16.899  0.0000E+00  0.4000E+01
    -16.805  0.0000E+00  0.4000E+01
    -16.711  0.0000E+00  0.4000E+01
    -16.617  0.0000E+00  0.4000E+01
    -16.523  0.0000E+00  0.4000E+01
    -16.429  0.0000E+00  0.4000E+01
    -16.336  0.0000E+00  0.4000E+01
    -16.242  0.0000E+00  0.4000E+01
    -16.148  0.0000E+00  0.4000E+01
    -16.054  0.0000E+00  0.4000E+01
    -15.960  0.0000E+00  0.4000E+01
    -15.866  0.0000E+00  0.4000E+01
    -15.773  0.0000E+00  0.4000E+01
    -15.679  0.0000E+00  0.4000E+01
    -15.585  0.0000E+00  0.4000E+01
    -15.491  0.0000E+00  0.4000E+01
    -15.397  0.0000E+00  0.4000E+01
    -15.304  0.0000E+00  0.4000E+01
    -15.210  0.0000E+00  0.4000E+01
    -15.116  0.0000E+00  0.4000E+01
    -15.022  0.0000E+00  0.4000E+01
    -14.928  0.0000E+00  0.4000E+01
    -14.834  0.0000E+00  0.4000E+01
    -14.741  0.0000E+00  0.4000E+01
    -14.647  0.0000E+00  0.4000E+01
    -14.553  0.0000E+00  0.4000E+01
    -14.459  0.0000E+00  0.4000E+01
    -14.365  0.0000E+00  0.4000E+01
    -14.272  0.0000E+00  0.4000E+01
    -14.178  0.0000E+00  0.4000E+01
    -14.084  0.0000E+00  0.4000E+01
    -13.990  0.0000E+00  0.4000E+01
    -13.896  0.0000E+00  0.4000E+01
    -13.802  0.0000E+00  0.4000E+01
    -13.709  0.0000E+00  0.4000E+01
    -13.615  0.0000E+00  0.4000E+01
    -13.521  0.0000E+00  0.4000E+01
    -13.427  0.2367E-14  0.4000E+01
    -13.333  0.2532E-06  0.4000E+01
    -13.240  0.3630E-01  0.4003E+01
    -13.146  0.8314E+01  0.4783E+01
    -13.052  0.1278E+02  0.5983E+01
    -12.958  0.1852E+00  0.6000E+01
    -12.864  0.5164E-05  0.6000E+01
    -12.770  0.1609E-12  0.6000E+01
    -12.677  0.0000E+00  0.6000E+01
    -12.583  0.0000E+00  0.6000E+01
    -12.489  0.0000E+00  0.6000E+01
    -12.395  0.0000E+00  0.6000E+01
    -12.301  0.0000E+00  0.6000E+01
    -12.208  0.0000E+00  0.6000E+01
    -12.114  0.7627E-10  0.6000E+01
    -12.020  0.2834E-03  0.6000E+01
    -11.926  0.1298E+01  0.6122E+01
    -11.832  0.1716E+02  0.7731E+01
    -11.738  0.2861E+01  0.8000E+01
    -11.645  0.1811E-02  0.8000E+01
    -11.551  0.1515E-08  0.8000E+01
    -11.457  0.0000E+00  0.8000E+01
    -11.363  0.0000E+00  0.8000E+01
    -11.269  0.0000E+00  0.8000E+01
    -11.175  0.0000E+00  0.8000E+01
    -11.082  0.0000E+00  0.8000E+01
    -10.988  0.0000E+00  0.8000E+01
    -10.894  0.0000E+00  0.8000E+01
    -10.800  0.0000E+00  0.8000E+01
    -10.706  0.0000E+00  0.8000E+01
    -10.613  0.0000E+00  0.8000E+01
    -10.519  0.0000E+00  0.8000E+01
    -10.425  0.0000E+00  0.8000E+01
    -10.331  0.0000E+00  0.8000E+01
    -10.237  0.4570E-10  0.8000E+01
    -10.143  0.2049E-03  0.8000E+01
    -10.050  0.1121E+01  0.8105E+01
     -9.956  0.1698E+02  0.9699E+01
     -9.862  0.3210E+01  0.1000E+02
     -9.768  0.2417E-02  0.1000E+02
     -9.674  0.2437E-08  0.1000E+02
     -9.581  0.0000E+00  0.1000E+02
     -9.487  0.0000E+00  0.1000E+02
     -9.393  0.0000E+00  0.1000E+02
     -9.299  0.0000E+00  0.1000E+02
     -9.205  0.0000E+00  0.1000E+02
     -9.111  0.0000E+00  0.1000E+02
     -9.018  0.0000E+00  0.1000E+02
     -8.924  0.4023E-13  0.1000E+02
     -8.830  0.2046E-05  0.1000E+02
     -8.736  0.1137E+00  0.1001E+02
     -8.642  0.1140E+02  0.1108E+02
     -8.549  0.9744E+01  0.1199E+02
     -8.455  0.6276E-01  0.1200E+02
     -8.361  0.6809E-06  0.1200E+02
     -8.267  0.9467E-14  0.1200E+02
     -8.173  0.0000E+00  0.1200E+02
     -8.079  0.0000E+00  0.1200E+02
     -7.986  0.6422E-11  0.1200E+02
     -7.892  0.5820E-04  0.1200E+02
     -7.798  0.6225E+00  0.1206E+02
     -7.704  0.1593E+02  0.1355E+02
     -7.610  0.4754E+01  0.1400E+02
     -7.517  0.6808E-02  0.1400E+02
     -7.423  0.1378E-07  0.1400E+02
     -7.329  0.0000E+00  0.1400E+02
     -7.235  0.0000E+00  0.1400E+02
     -7.141  0.0000E+00  0.1400E+02
     -7.047  0.0000E+00  0.1400E+02
     -6.954  0.0000E+00  0.1400E+02
     -6.860  0.0000E+00  0.1400E+02
     -6.766  0.0000E+00  0.1400E+02
     -6.672  0.4434E-09  0.1400E+02
     -6.578  0.8518E-03  0.1400E+02
     -6.484  0.2096E+01  0.1420E+02
     -6.391  0.1738E+02  0.1583E+02
     -6.297  0.1843E+01  0.1600E+02
     -6.203  0.6303E-03  0.1600E+02
     -6.109  0.2729E-09  0.1600E+02
     -6.015  0.0000E+00  0.1600E+02
     -5.922  0.0000E+00  0.1600E+02
     -5.828  0.0000E+00  0.1600E+02
     -5.734  0.0000E+00  0.1600E+02
     -5.640  0.0000E+00  0.1600E+02
     -5.546  0.0000E+00  0.1600E+02
     -5.452  0.0000E+00  0.1600E+02
     -5.359  0.0000E+00  0.1600E+02
     -5.265  0.0000E+00  0.1600E+02
     -5.171  0.0000E+00  0.1600E+02
     -5.077  0.0000E+00  0.1600E+02
     -4.983  0.0000E+00  0.1600E+02
     -4.890  0.0000E+00  0.1600E+02
     -4.796  0.0000E+00  0.1600E+02
     -4.702  0.0000E+00  0.1600E+02
     -4.608  0.0000E+00  0.1600E+02
     -4.514  0.0000E+00  0.1600E+02
     -4.420  0.0000E+00  0.1600E+02
     -4.327  0.0000E+00  0.1600E+02
     -4.233  0.0000E+00  0.1600E+02
     -4.139  0.0000E+00  0.1600E+02
     -4.045  0.0000E+00  0.1600E+02
     -3.951  0.0000E+00  0.1600E+02
     -3.858  0.0000E+00  0.1600E+02
     -3.764  0.0000E+00  0.1600E+02
     -3.670  0.0000E+00  0.1600E+02
     -3.576  0.0000E+00  0.1600E+02
     -3.482  0.0000E+00  0.1600E+02
     -3.388  0.0000E+00  0.1600E+02
     -3.295  0.0000E+00  0.1600E+02
     -3.201  0.0000E+00  0.1600E+02
     -3.107  0.0000E+00  0.1600E+02
     -3.013  0.0000E+00  0.1600E+02
     -2.919  0.0000E+00  0.1600E+02
     -2.826  0.0000E+00  0.1600E+02
     -2.732  0.0000E+00  0.1600E+02
     -2.638  0.0000E+00  0.1600E+02
     -2.544  0.0000E+00  0.1600E+02
     -2.450  0.0000E+00  0.1600E+02
     -2.356  0.0000E+00  0.1600E+02
     -2.263  0.0000E+00  0.1600E+02
     -2.169  0.0000E+00  0.1600E+02
     -2.075  0.0000E+00  0.1600E+02
     -1.981  0.0000E+00  0.1600E+02
     -1.887  0.0000E+00  0.1600E+02
     -1.793  0.1183E-14  0.1600E+02
     -1.700  0.1203E-06  0.1600E+02
     -1.606  0.2386E-01  0.1600E+02
     -1.512  0.7299E+01  0.1669E+02
     -1.418  0.1373E+02  0.1798E+02
     -1.324  0.2601E+00  0.1800E+02
     -1.231  0.9993E-05  0.1800E+02
     -1.137  0.4355E-12  0.1800E+02
     -1.043  0.0000E+00  0.1800E+02
     -0.949  0.0000E+00  0.1800E+02
     -0.855  0.0000E+00  0.1800E+02
     -0.761  0.0000E+00  0.1800E+02
     -0.668  0.0000E+00  0.1800E+02
     -0.574  0.1183E-14  0.1800E+02
     -0.480  0.2316E-06  0.1800E+02
     -0.386  0.3453E-01  0.1800E+02
     -0.292  0.8189E+01  0.1877E+02
     -0.199  0.1290E+02  0.1998E+02
     -0.105  0.1935E+00  0.2000E+02
     -0.011  0.1478E+01  0.2014E+02
      0.083  0.1727E+02  0.2176E+02
      0.177  0.6164E+01  0.2234E+02
      0.271  0.1676E+02  0.2391E+02
      0.364  0.9594E+00  0.2400E+02
      0.458  0.1459E-03  0.2400E+02
      0.552  0.2682E-10  0.2400E+02
      0.646  0.0000E+00  0.2400E+02
      0.740  0.0000E+00  0.2400E+02
      0.833  0.0000E+00  0.2400E+02
      0.927  0.0000E+00  0.2400E+02
      1.021  0.0000E+00  0.2400E+02
      1.115  0.0000E+00  0.2400E+02
      1.209  0.0000E+00  0.2400E+02
      1.303  0.0000E+00  0.2400E+02
      1.396  0.0000E+00  0.2400E+02
      1.490  0.0000E+00  0.2400E+02
