    6    6    1    1
  0.5000000E+03  0.3000000E-08  0.1000000E-08  0.1000000E-08  0.5000000E-15
  1.000000000000000E-004
  CAR 
 unknown system                          
     16      2     12
 
  0.0000000E+00  0.2500000E+00  0.2500000E+00  0.5000000E+00
    1      -25.376425   1.000000
    2      -24.035298   1.000000
    3      -13.135990   1.000000
    4      -11.871345   1.000000
    5       -9.992369   1.000000
    6       -8.645896   1.000000
    7       -7.731053   1.000000
    8       -6.438844   1.000000
    9       -1.497783   0.000000
   10       -0.282037   0.000000
   11        0.041062   0.000000
   12        0.210848   0.000000
 
  0.0000000E+00 -0.2500000E+00  0.2500000E+00  0.5000000E+00
    1      -25.376425   1.000000
    2      -24.035298   1.000000
    3      -13.135990   1.000000
    4      -11.871345   1.000000
    5       -9.992369   1.000000
    6       -8.645896   1.000000
    7       -7.731053   1.000000
    8       -6.438844   1.000000
    9       -1.497781   0.000000
   10       -0.282167   0.000000
   11        0.041826   0.000000
   12        0.210380   0.000000
