 running on   32 total cores
 distrk:  each k-point on   32 cores,    1 groups
 distr:  one band on   16 cores,    2 groups
 using from now: INCAR     
 vasp.5.4.4.18Apr17-6-g9f103f2a35 (build Nov 25 2019 16:34:31) complex          
  
 POSCAR found type information on POSCAR  O  H 
 POSCAR found :  2 types and       6 ions
 scaLAPACK will be used

 ----------------------------------------------------------------------------- 
|                                                                             |
|           W    W    AA    RRRRR   N    N  II  N    N   GGGG   !!!           |
|           W    W   A  A   R    R  NN   N  II  NN   N  G    G  !!!           |
|           W    W  A    A  R    R  N N  N  II  N N  N  G       !!!           |
|           W WW W  AAAAAA  RRRRR   N  N N  II  N  N N  G  GGG   !            |
|           WW  WW  A    A  R   R   N   NN  II  N   NN  G    G                |
|           W    W  A    A  R    R  N    N  II  N    N   GGGG   !!!           |
|                                                                             |
|      For optimal performance we recommend to set                            |
|        NCORE= 4 - approx SQRT( number of cores)                             |
|      NCORE specifies how many cores store one orbital (NPAR=cpu/NCORE).     |
|      This setting can  greatly improve the performance of VASP for DFT.     |
|      The default,   NCORE=1            might be grossly inefficient         |
|      on modern multi-core architectures or massively parallel machines.     |
|      Do your own testing !!!!                                               |
|      Unfortunately you need to use the default for GW and RPA calculations. |
|      (for HF NCORE is supported but not extensively tested yet)             |
|                                                                             |
 ----------------------------------------------------------------------------- 

 LDA part: xc-table for Pade appr. of Perdew
 generate k-points for:    1    2    2
 POSCAR, INCAR and KPOINTS ok, starting setup
 FFT: planning ...
 WAVECAR not read
 WARNING: random wavefunctions but no delay for mixing, default for NELMDL
 entering main loop
       N       E                     dE             d eps       ncg     rms          rms(c)
DAV:   1     0.135924537740E+03    0.13592E+03   -0.49056E+03    72   0.142E+03
DAV:   2     0.340114265768E+02   -0.10191E+03   -0.10116E+03    96   0.157E+02
DAV:   3    -0.255352918328E+02   -0.59547E+02   -0.59073E+02    80   0.137E+02
DAV:   4    -0.318720546288E+02   -0.63368E+01   -0.63314E+01    64   0.529E+01
DAV:   5    -0.320291187217E+02   -0.15706E+00   -0.15705E+00    72   0.110E+01    0.180E+01
RMM:   6    -0.288124495106E+02    0.32167E+01   -0.12646E+01    64   0.251E+01    0.175E+01
RMM:   7    -0.287621426013E+02    0.50307E-01   -0.12067E+00    76   0.545E+00    0.153E+01
RMM:   8    -0.295039301011E+02   -0.74179E+00   -0.63727E+00    64   0.211E+01    0.115E+01
RMM:   9    -0.285407086467E+02    0.96322E+00   -0.22376E+00    64   0.110E+01    0.403E+00
RMM:  10    -0.285428649847E+02   -0.21563E-02   -0.21680E-01    76   0.270E+00    0.165E+00
RMM:  11    -0.285337325068E+02    0.91325E-02   -0.17921E-02    66   0.700E-01    0.890E-01
RMM:  12    -0.285302612009E+02    0.34713E-02   -0.74738E-02    60   0.161E+00    0.947E-01
RMM:  13    -0.285324261461E+02   -0.21649E-02   -0.79681E-03    74   0.442E-01    0.876E-01
RMM:  14    -0.285345282684E+02   -0.21021E-02   -0.56740E-04    62   0.152E-01    0.768E-01
RMM:  15    -0.285366187534E+02   -0.20905E-02   -0.13216E-02    60   0.847E-01    0.159E-01
RMM:  16    -0.285372199747E+02   -0.60122E-03   -0.19249E-03    74   0.278E-01    0.252E-01
RMM:  17    -0.285387802546E+02   -0.15603E-02   -0.52665E-04    60   0.148E-01    0.275E-01
RMM:  18    -0.285398031302E+02   -0.10229E-02   -0.79988E-04    64   0.140E-01    0.152E-01
RMM:  19    -0.285398155843E+02   -0.12454E-04   -0.22287E-03    66   0.275E-01    0.868E-02
RMM:  20    -0.285395051544E+02    0.31043E-03   -0.55345E-04    62   0.132E-01    0.706E-02
RMM:  21    -0.285388220384E+02    0.68312E-03   -0.16047E-04    72   0.576E-02    0.802E-02
RMM:  22    -0.285389218803E+02   -0.99842E-04   -0.91945E-04    60   0.178E-01    0.265E-01
RMM:  23    -0.285386785663E+02    0.24331E-03   -0.30354E-04    66   0.127E-01    0.127E-01
RMM:  24    -0.285390095882E+02   -0.33102E-03   -0.31516E-03    50   0.355E-01    0.215E-01
RMM:  25    -0.285390043035E+02    0.52847E-05   -0.19466E-04    62   0.684E-02    0.207E-01
RMM:  26    -0.285399050938E+02   -0.90079E-03   -0.18305E-03    54   0.285E-01    0.985E-02
RMM:  27    -0.285402454829E+02   -0.34039E-03   -0.13259E-04    68   0.567E-02    0.103E-01
RMM:  28    -0.285408702273E+02   -0.62474E-03   -0.94615E-05    52   0.655E-02    0.234E-02
RMM:  29    -0.285411209029E+02   -0.25068E-03   -0.16883E-05    74   0.235E-02    0.206E-02
RMM:  30    -0.285414438651E+02   -0.32296E-03   -0.35275E-05    60   0.369E-02    0.195E-02
RMM:  31    -0.285415224961E+02   -0.78631E-04   -0.61254E-06    60   0.151E-02    0.458E-03
RMM:  32    -0.285415601393E+02   -0.37643E-04   -0.11560E-06    66   0.515E-03    0.559E-03
RMM:  33    -0.285415861723E+02   -0.26033E-04   -0.10572E-06    60   0.584E-03    0.180E-03
RMM:  34    -0.285415943093E+02   -0.81370E-05   -0.52484E-07    72   0.429E-03    0.214E-03
RMM:  35    -0.285416005481E+02   -0.62389E-05   -0.17937E-07    58   0.262E-03    0.142E-03
RMM:  36    -0.285416025134E+02   -0.19653E-05   -0.87906E-08    57   0.166E-03    0.334E-04
RMM:  37    -0.285416040086E+02   -0.14952E-05   -0.33142E-08    52   0.977E-04    0.162E-04
RMM:  38    -0.285416043632E+02   -0.35458E-06   -0.15188E-08    50   0.641E-04    0.171E-04
RMM:  39    -0.285416046574E+02   -0.29427E-06   -0.10194E-08    42   0.498E-04    0.114E-04
RMM:  40    -0.285416048922E+02   -0.23472E-06   -0.13837E-08    44   0.528E-04    0.190E-04
RMM:  41    -0.285416050064E+02   -0.11423E-06   -0.71981E-09    40   0.414E-04    0.695E-05
RMM:  42    -0.285416051289E+02   -0.12252E-06   -0.73833E-09    38   0.442E-04    0.117E-04
RMM:  43    -0.285416051856E+02   -0.56707E-07   -0.58437E-09    42   0.415E-04    0.182E-04
RMM:  44    -0.285416055190E+02   -0.33340E-06   -0.40247E-09    40   0.329E-04    0.113E-04
RMM:  45    -0.285416056434E+02   -0.12438E-06   -0.32742E-09    38   0.279E-04    0.136E-04
RMM:  46    -0.285416058447E+02   -0.20127E-06   -0.39821E-09    42   0.393E-04    0.195E-04
RMM:  47    -0.285416059144E+02   -0.69753E-07   -0.23879E-09    42   0.334E-04    0.108E-04
RMM:  48    -0.285416059368E+02   -0.22369E-07   -0.70952E-10    40   0.184E-04    0.995E-05
RMM:  49    -0.285416059700E+02   -0.33245E-07   -0.76922E-10    34   0.214E-04    0.106E-04
RMM:  50    -0.285416059817E+02   -0.11655E-07   -0.17486E-10    32   0.150E-04    0.822E-05
RMM:  51    -0.285416059846E+02   -0.29431E-08   -0.16543E-10    34   0.160E-04
   1 F= -.28541606E+02 E0= -.28541606E+02  d E =-.638808E-12
