<?xml version="1.0" encoding="ISO-8859-1"?>
<modeling>
 <generator>
  <i name="program" type="string">vasp </i>
  <i name="version" type="string">5.4.4.18Apr17-6-g9f103f2a35  </i>
  <i name="subversion" type="string">(build Nov 25 2019 16:34:31) complex            parallel </i>
  <i name="platform" type="string">LinuxIFC </i>
  <i name="date" type="string">2021 04 06 </i>
  <i name="time" type="string">12:18:02 </i>
 </generator>
 <incar>
  <i type="string" name="PREC">a</i>
  <i type="string" name="ALGO">fast</i>
  <i name="AMIN">      0.00500000</i>
  <i type="int" name="NELM">   300</i>
  <i type="int" name="NELMIN">     4</i>
  <i type="int" name="IBRION">    -1</i>
  <i name="EDIFF">      0.00000001</i>
  <i type="int" name="NSW">     0</i>
  <i type="int" name="ISIF">     2</i>
  <i name="ENCUT">   1500.00000000</i>
  <i type="logical" name="LREAL"> F  </i>
  <i type="int" name="ISMEAR">     0</i>
  <i name="SIGMA">      0.05000000</i>
  <i name="KSPACING">      0.50000000</i>
  <i type="logical" name="KGAMMA"> F  </i>
  <i name="PSTRESS">      0.00000000</i>
  <i type="logical" name="LWAVE"> F  </i>
  <i type="logical" name="LCHARG"> F  </i>
  <v type="int" name="KPOINT_BSE">    -1     0     0     0</v>
  <i type="int" name="NELM">   300</i>
 </incar>
 <structure name="primitive_cell" >
  <crystal>
   <varray name="basis" >
    <v>      30.00000000       0.00000000       0.00000000 </v>
    <v>       0.00000000      10.00000000       0.00000000 </v>
    <v>       0.00000000       0.00000000      10.00000000 </v>
   </varray>
   <i name="volume">   3000.00000000 </i>
   <varray name="rec_basis" >
    <v>       0.03333333       0.00000000       0.00000000 </v>
    <v>       0.00000000       0.10000000       0.00000000 </v>
    <v>       0.00000000       0.00000000       0.10000000 </v>
   </varray>
  </crystal>
  <varray name="positions" >
   <v>       0.05953563       0.15710957       0.17600000 </v>
   <v>       0.02613922       0.16672783       0.17649328 </v>
   <v>       0.07021080       0.25541218       0.17439231 </v>
   <v>      -0.04486896       0.15710957       0.17600000 </v>
   <v>      -0.05375150       0.09907990       0.09607226 </v>
   <v>      -0.05387697       0.09941802       0.25610440 </v>
  </varray>
 </structure>
 <varray name="primitive_index" >
  <v type="int" >        1 </v>
  <v type="int" >        4 </v>
  <v type="int" >        3 </v>
  <v type="int" >        2 </v>
  <v type="int" >        6 </v>
  <v type="int" >        5 </v>
 </varray>
 <kpoints>
  <generation param="Monkhorst-Pack">
   <v type="int" name="divisions">       1        2        2 </v>
   <v name="usershift">      0.00000000       0.00000000       0.00000000 </v>
   <v name="genvec1">      1.00000000       0.00000000       0.00000000 </v>
   <v name="genvec2">      0.00000000       0.50000000       0.00000000 </v>
   <v name="genvec3">      0.00000000       0.00000000       0.50000000 </v>
   <v name="shift">      0.00000000       0.50000000       0.50000000 </v>
  </generation>
  <varray name="kpointlist" >
   <v>       0.00000000       0.25000000       0.25000000 </v>
   <v>       0.00000000      -0.25000000       0.25000000 </v>
  </varray>
  <varray name="weights" >
   <v>       0.50000000 </v>
   <v>       0.50000000 </v>
  </varray>
 </kpoints>
 <parameters>
  <separator name="general" >
   <i type="string" name="SYSTEM">unknown system</i>
   <i type="logical" name="LCOMPAT"> F  </i>
  </separator>
  <separator name="electronic" >
   <i type="string" name="PREC">a</i>
   <i name="ENMAX">   1500.00000000</i>
   <i name="ENAUG">   1000.00000000</i>
   <i name="EDIFF">      0.00000001</i>
   <i type="int" name="IALGO">    68</i>
   <i type="int" name="IWAVPR">    10</i>
   <i type="int" name="NBANDS">    12</i>
   <i name="NELECT">     16.00000000</i>
   <i type="int" name="TURBO">     0</i>
   <i type="int" name="IRESTART">     0</i>
   <i type="int" name="NREBOOT">     0</i>
   <i type="int" name="NMIN">     0</i>
   <i name="EREF">      0.00000000</i>
   <separator name="electronic smearing" >
    <i type="int" name="ISMEAR">     0</i>
    <i name="SIGMA">      0.05000000</i>
    <i name="KSPACING">      0.50000000</i>
    <i type="logical" name="KGAMMA"> F  </i>
   </separator>
   <separator name="electronic projectors" >
    <i type="logical" name="LREAL"> F  </i>
    <v name="ROPT">      0.00000000      0.00000000</v>
    <i type="int" name="LMAXPAW">  -100</i>
    <i type="int" name="LMAXMIX">     2</i>
    <i type="logical" name="NLSPLINE"> F  </i>
   </separator>
   <separator name="electronic startup" >
    <i type="int" name="ISTART">     0</i>
    <i type="int" name="ICHARG">     2</i>
    <i type="int" name="INIWAV">     1</i>
   </separator>
   <separator name="electronic spin" >
    <i type="int" name="ISPIN">     1</i>
    <i type="logical" name="LNONCOLLINEAR"> F  </i>
    <v name="MAGMOM">      1.00000000      1.00000000      1.00000000      1.00000000      1.00000000      1.00000000</v>
    <i name="NUPDOWN">     -1.00000000</i>
    <i type="logical" name="LSORBIT"> F  </i>
    <v name="SAXIS">      0.00000000      0.00000000      1.00000000</v>
    <i type="logical" name="LSPIRAL"> F  </i>
    <v name="QSPIRAL">      0.00000000      0.00000000      0.00000000</v>
    <i type="logical" name="LZEROZ"> F  </i>
   </separator>
   <separator name="electronic exchange-correlation" >
    <i type="logical" name="LASPH"> F  </i>
    <i type="logical" name="LMETAGGA"> F  </i>
   </separator>
   <separator name="electronic convergence" >
    <i type="int" name="NELM">   300</i>
    <i type="int" name="NELMDL">     0</i>
    <i type="int" name="NELMIN">     4</i>
    <i name="ENINI">   1500.00000000</i>
    <separator name="electronic convergence detail" >
     <i type="logical" name="LDIAG"> T  </i>
     <i type="logical" name="LSUBROT"> F  </i>
     <i name="WEIMIN">      0.00000000</i>
     <i name="EBREAK">      0.00000000</i>
     <i name="DEPER">      0.30000000</i>
     <i type="int" name="NRMM">     4</i>
     <i name="TIME">      0.40000000</i>
    </separator>
   </separator>
   <separator name="electronic mixer" >
    <i name="AMIX">      0.40000000</i>
    <i name="BMIX">      1.00000000</i>
    <i name="AMIN">      0.00500000</i>
    <i name="AMIX_MAG">      1.60000000</i>
    <i name="BMIX_MAG">      1.00000000</i>
    <separator name="electronic mixer details" >
     <i type="int" name="IMIX">     4</i>
     <i type="logical" name="MIXFIRST"> F  </i>
     <i type="int" name="MAXMIX">   -45</i>
     <i name="WC">    100.00000000</i>
     <i type="int" name="INIMIX">     1</i>
     <i type="int" name="MIXPRE">     1</i>
     <i type="int" name="MREMOVE">     5</i>
    </separator>
   </separator>
   <separator name="electronic dipolcorrection" >
    <i type="logical" name="LDIPOL"> F  </i>
    <i type="logical" name="LMONO"> F  </i>
    <i type="int" name="IDIPOL">     0</i>
    <i name="EPSILON">      1.00000000</i>
    <v name="DIPOL">   -100.00000000   -100.00000000   -100.00000000</v>
    <i name="EFIELD">      0.00000000</i>
   </separator>
  </separator>
  <separator name="grids" >
   <i type="int" name="NGX">   384</i>
   <i type="int" name="NGY">   126</i>
   <i type="int" name="NGZ">   126</i>
   <i type="int" name="NGXF">   768</i>
   <i type="int" name="NGYF">   252</i>
   <i type="int" name="NGZF">   252</i>
   <i type="logical" name="ADDGRID"> F  </i>
  </separator>
  <separator name="ionic" >
   <i type="int" name="NSW">     0</i>
   <i type="int" name="IBRION">    -1</i>
   <i type="int" name="MDALGO">     0</i>
   <i type="int" name="ISIF">     2</i>
   <i name="PSTRESS">      0.00000000</i>
   <i name="EDIFFG">      0.00000010</i>
   <i type="int" name="NFREE">     0</i>
   <i name="POTIM">      0.50000000</i>
   <i name="SMASS">     -3.00000000</i>
   <i name="SCALEE">      1.00000000</i>
  </separator>
  <separator name="ionic md" >
   <i name="TEBEG">      0.00010000</i>
   <i name="TEEND">      0.00010000</i>
   <i type="int" name="NBLOCK">     1</i>
   <i type="int" name="KBLOCK">     1</i>
   <i type="int" name="NPACO">   256</i>
   <i name="APACO">     16.00000000</i>
  </separator>
  <separator name="symmetry" >
   <i type="int" name="ISYM">     2</i>
   <i name="SYMPREC">      0.00001000</i>
  </separator>
  <separator name="dos" >
   <i type="int" name="LORBIT">     0</i>
   <v name="RWIGS">     -1.00000000     -1.00000000</v>
   <i type="int" name="NEDOS">   301</i>
   <i name="EMIN">     10.00000000</i>
   <i name="EMAX">    -10.00000000</i>
   <i name="EFERMI">      0.00000000</i>
  </separator>
  <separator name="writing" >
   <i type="int" name="NWRITE">     2</i>
   <i type="logical" name="LWAVE"> F  </i>
   <i type="logical" name="LDOWNSAMPLE"> F  </i>
   <i type="logical" name="LCHARG"> F  </i>
   <i type="logical" name="LPARD"> F  </i>
   <i type="logical" name="LVTOT"> F  </i>
   <i type="logical" name="LVHAR"> F  </i>
   <i type="logical" name="LELF"> F  </i>
   <i type="logical" name="LOPTICS"> F  </i>
   <v name="STM">      0.00000000      0.00000000      0.00000000      0.00000000      0.00000000      0.00000000      0.00000000</v>
  </separator>
  <separator name="performance" >
   <i type="int" name="NPAR">     2</i>
   <i type="int" name="NSIM">     4</i>
   <i type="int" name="NBLK">    -1</i>
   <i type="logical" name="LPLANE"> T  </i>
   <i type="logical" name="LSCALAPACK"> T  </i>
   <i type="logical" name="LSCAAWARE"> F  </i>
   <i type="logical" name="LSCALU"> F  </i>
   <i type="logical" name="LASYNC"> F  </i>
   <i type="logical" name="LORBITALREAL"> F  </i>
  </separator>
  <separator name="miscellaneous" >
   <i type="int" name="IDIOT">     3</i>
   <i type="int" name="ISPECIAL">     0</i>
   <i type="logical" name="LMUSIC"> F  </i>
   <v name="POMASS">     16.00000000      1.00000000</v>
   <v name="DARWINR">      0.00000000      0.00000000</v>
   <v name="DARWINV">      1.00000000      1.00000000</v>
   <i type="logical" name="LCORR"> T  </i>
  </separator>
  <i type="logical" name="GGA_COMPAT"> T  </i>
  <i type="logical" name="LBERRY"> F  </i>
  <i type="int" name="ICORELEVEL">     0</i>
  <i type="logical" name="LDAU"> F  </i>
  <i type="int" name="I_CONSTRAINED_M">     0</i>
  <separator name="electronic exchange-correlation" >
   <i type="string" name="GGA">--</i>
   <i type="int" name="VOSKOWN">     0</i>
   <i type="logical" name="LHFCALC"> F  </i>
   <i type="string" name="PRECFOCK"></i>
   <i type="logical" name="LSYMGRAD"> F  </i>
   <i type="logical" name="LHFONE"> F  </i>
   <i type="logical" name="LRHFCALC"> F  </i>
   <i type="logical" name="LTHOMAS"> F  </i>
   <i type="logical" name="LMODELHF"> F  </i>
   <i name="ENCUT4O">     -1.00000000</i>
   <i type="int" name="EXXOEP">     0</i>
   <i type="int" name="FOURORBIT">     0</i>
   <i name="AEXX">      0.00000000</i>
   <i name="HFALPHA">      0.00000000</i>
   <i name="MCALPHA">      0.00000000</i>
   <i name="ALDAX">      1.00000000</i>
   <i name="AGGAX">      1.00000000</i>
   <i name="ALDAC">      1.00000000</i>
   <i name="AGGAC">      1.00000000</i>
   <i type="int" name="NKREDX">     1</i>
   <i type="int" name="NKREDY">     1</i>
   <i type="int" name="NKREDZ">     1</i>
   <i type="logical" name="SHIFTRED"> F  </i>
   <i type="logical" name="ODDONLY"> F  </i>
   <i type="logical" name="EVENONLY"> F  </i>
   <i type="int" name="LMAXFOCK">     0</i>
   <i type="int" name="NMAXFOCKAE">     0</i>
   <i type="logical" name="LFOCKAEDFT"> F  </i>
   <i name="HFSCREEN">      0.00000000</i>
   <i name="HFSCREENC">      0.00000000</i>
   <i type="int" name="NBANDSGWLOW">     0</i>
  </separator>
  <separator name="vdW DFT" >
   <i type="logical" name="LUSE_VDW"> F  </i>
   <i name="Zab_VDW">     -0.84910000</i>
   <i name="PARAM1">      0.12340000</i>
   <i name="PARAM2">      1.00000000</i>
   <i name="PARAM3">      0.00000000</i>
  </separator>
  <separator name="model GW" >
   <i type="int" name="MODEL_GW">     0</i>
   <i name="MODEL_EPS0">    300.00000000</i>
   <i name="MODEL_ALPHA">      1.00000000</i>
  </separator>
  <separator name="linear response parameters" >
   <i type="logical" name="LEPSILON"> F  </i>
   <i type="logical" name="LRPA"> F  </i>
   <i type="logical" name="LNABLA"> F  </i>
   <i type="logical" name="LVEL"> F  </i>
   <i type="int" name="KINTER">     0</i>
   <i name="CSHIFT">      0.10000000</i>
   <i name="OMEGAMAX">     -1.00000000</i>
   <i name="DEG_THRESHOLD">      0.00200000</i>
   <i name="RTIME">     -0.10000000</i>
   <i name="WPLASMAI">      0.00000000</i>
   <v name="DFIELD">      0.00000000      0.00000000      0.00000000</v>
   <v name="WPLASMA">      0.00000000      0.00000000      0.00000000      0.00000000      0.00000000      0.00000000      0.00000000      0.00000000      0.00000000</v>
  </separator>
  <separator name="orbital magnetization" >
   <i type="logical" name="NUCIND"> F  </i>
   <v name="MAGPOS">      0.00000000      0.00000000      0.00000000</v>
   <i type="logical" name="LNICSALL"> T  </i>
   <i type="logical" name="ORBITALMAG"> F  </i>
   <i type="logical" name="LMAGBLOCH"> F  </i>
   <i type="logical" name="LCHIMAG"> F  </i>
   <i type="logical" name="LGAUGE"> T  </i>
   <i type="int" name="MAGATOM">     0</i>
   <v name="MAGDIPOL">      0.00000000      0.00000000      0.00000000</v>
   <v name="AVECCONST">      0.00000000      0.00000000      0.00000000</v>
  </separator>
  <separator name="response functions" >
   <i type="logical" name="LADDER"> F  </i>
   <i type="logical" name="LRPAFORCE"> F  </i>
   <i type="logical" name="LFXC"> F  </i>
   <i type="logical" name="LHARTREE"> T  </i>
   <i type="int" name="IBSE">     0</i>
   <v type="int" name="KPOINT">    -1     0     0     0</v>
   <i type="logical" name="LTCTE"> F  </i>
   <i type="logical" name="LTETE"> F  </i>
   <i type="logical" name="LTRIPLET"> F  </i>
   <i type="logical" name="LFXCEPS"> F  </i>
   <i type="logical" name="LFXHEG"> F  </i>
   <i type="int" name="NATURALO">     2</i>
   <i type="logical" name="L2ORDER"> F  </i>
   <i type="logical" name="LMP2LT"> F  </i>
   <i type="logical" name="LUSEW"> F  </i>
   <i name="ENCUTGW">     -2.00000000</i>
   <i name="ENCUTGWSOFT">     -2.00000000</i>
   <i name="ENCUTLF">     -1.00000000</i>
   <i type="int" name="LMAXMP2">    -1</i>
   <i name="SCISSOR">      0.00000000</i>
   <i type="int" name="NOMEGA">     0</i>
   <i type="int" name="NOMEGAR">     0</i>
   <i type="int" name="NBANDSGW">    -1</i>
   <i type="int" name="NBANDSO">    -1</i>
   <i type="int" name="NBANDSV">    -1</i>
   <i type="int" name="NELM">   300</i>
   <i type="int" name="NELMHF">     1</i>
   <i type="int" name="DIM">     3</i>
   <i type="int" name="ANTIRES">     0</i>
   <i name="OMEGAMAX">    -30.00000000</i>
   <i name="OMEGAMIN">    -30.00000000</i>
   <i name="OMEGATL">   -200.00000000</i>
   <i type="int" name="OMEGAGRID">   140</i>
   <i name="CSHIFT">     -0.10000000</i>
   <i type="logical" name="SELFENERGY"> F  </i>
   <i type="logical" name="LSPECTRAL"> F  </i>
   <i type="logical" name="LSPECTRALGW"> F  </i>
   <i type="logical" name="LSINGLES"> F  </i>
   <i type="logical" name="LFERMIGW"> F  </i>
   <i type="logical" name="ODDONLYGW"> F  </i>
   <i type="logical" name="EVENONLYGW"> F  </i>
   <i type="int" name="NKREDLFX">     1</i>
   <i type="int" name="NKREDLFY">     1</i>
   <i type="int" name="NKREDLFZ">     1</i>
   <i type="int" name="MAXMEM">  2800</i>
   <i type="int" name="TELESCOPE">     0</i>
   <i type="int" name="TAUPAR">     1</i>
   <i type="int" name="OMEGAPAR">    -1</i>
   <i name="LAMBDA">      1.00000000</i>
  </separator>
  <separator name="External order field" >
   <i name="OFIELD_KAPPA">      0.00000000</i>
   <v name="OFIELD_K">      0.00000000      0.00000000      0.00000000</v>
   <i name="OFIELD_Q6_NEAR">      0.00000000</i>
   <i name="OFIELD_Q6_FAR">      0.00000000</i>
   <i name="OFIELD_A">      0.00000000</i>
  </separator>
 </parameters>
 <atominfo>
  <atoms>       6 </atoms>
  <types>       2 </types>
  <array name="atoms" >
   <dimension dim="1">ion</dimension>
   <field type="string">element</field>
   <field type="int">atomtype</field>
   <set>
    <rc><c>O </c><c>   1</c></rc>
    <rc><c>O </c><c>   1</c></rc>
    <rc><c>H </c><c>   2</c></rc>
    <rc><c>H </c><c>   2</c></rc>
    <rc><c>H </c><c>   2</c></rc>
    <rc><c>H </c><c>   2</c></rc>
   </set>
  </array>
  <array name="atomtypes" >
   <dimension dim="1">type</dimension>
   <field type="int">atomspertype</field>
   <field type="string">element</field>
   <field>mass</field>
   <field>valence</field>
   <field type="string">pseudopotential</field>
   <set>
    <rc><c>   2</c><c>O </c><c>     16.00000000</c><c>      6.00000000</c><c>  PAW_PBE O_h 06Feb2004                 </c></rc>
    <rc><c>   4</c><c>H </c><c>      1.00000000</c><c>      1.00000000</c><c>  PAW_PBE H_h 06Feb2004                 </c></rc>
   </set>
  </array>
 </atominfo>
 <structure name="initialpos" >
  <crystal>
   <varray name="basis" >
    <v>      30.00000000       0.00000000       0.00000000 </v>
    <v>       0.00000000      10.00000000       0.00000000 </v>
    <v>       0.00000000       0.00000000      10.00000000 </v>
   </varray>
   <i name="volume">   3000.00000000 </i>
   <varray name="rec_basis" >
    <v>       0.03333333       0.00000000       0.00000000 </v>
    <v>       0.00000000       0.10000000       0.00000000 </v>
    <v>       0.00000000       0.00000000       0.10000000 </v>
   </varray>
  </crystal>
  <varray name="positions" >
   <v>       0.05953563       0.15710957       0.17600000 </v>
   <v>       0.95513104       0.15710957       0.17600000 </v>
   <v>       0.07021080       0.25541218       0.17439231 </v>
   <v>       0.02613922       0.16672783       0.17649328 </v>
   <v>       0.94612303       0.09941802       0.25610440 </v>
   <v>       0.94624850       0.09907990       0.09607226 </v>
  </varray>
 </structure>
 <calculation>
  <scstep>
   <time name="dav">    3.52    3.54</time>
   <time name="total">    6.21    6.27</time>
   <energy>
    <i name="alphaZ">      0.21758540 </i>
    <i name="ewald">    494.05636670 </i>
    <i name="hartreedc">  -1219.54725518 </i>
    <i name="XCdc">     60.73249658 </i>
    <i name="pawpsdc">    697.41634940 </i>
    <i name="pawaedc">   -699.85762974 </i>
    <i name="eentropy">     -0.00000000 </i>
    <i name="bandstr">   -111.79704412 </i>
    <i name="atom">    914.70366869 </i>
    <i name="e_fr_energy">    135.92453774 </i>
    <i name="e_wo_entrp">    135.92453774 </i>
    <i name="e_0_energy">    135.92453774 </i>
   </energy>
  </scstep>
  <scstep>
   <time name="dav">    4.39    4.43</time>
   <time name="total">    4.39    4.43</time>
   <energy>
    <i name="e_fr_energy">     34.01142658 </i>
    <i name="e_wo_entrp">     34.01142658 </i>
    <i name="e_0_energy">     34.01142658 </i>
   </energy>
  </scstep>
  <scstep>
   <time name="dav">    3.80    3.81</time>
   <time name="total">    3.80    3.81</time>
   <energy>
    <i name="e_fr_energy">    -25.53529183 </i>
    <i name="e_wo_entrp">    -25.53529183 </i>
    <i name="e_0_energy">    -25.53529183 </i>
   </energy>
  </scstep>
  <scstep>
   <time name="dav">    3.22    3.23</time>
   <time name="total">    3.22    3.23</time>
   <energy>
    <i name="e_fr_energy">    -31.87205463 </i>
    <i name="e_wo_entrp">    -31.87205463 </i>
    <i name="e_0_energy">    -31.87205463 </i>
   </energy>
  </scstep>
  <scstep>
   <time name="dav">    3.53    3.53</time>
   <time name="total">    4.06    4.07</time>
   <energy>
    <i name="e_fr_energy">    -32.02911872 </i>
    <i name="e_wo_entrp">    -32.02911872 </i>
    <i name="e_0_energy">    -32.02911872 </i>
   </energy>
  </scstep>
  <scstep>
   <time name="diag">    0.68    0.68</time>
   <time name="diis">    3.65    3.67</time>
   <time name="orth">    0.03    0.03</time>
   <time name="total">    7.61    7.63</time>
   <energy>
    <i name="e_fr_energy">    -28.81244951 </i>
    <i name="e_wo_entrp">    -28.81244951 </i>
    <i name="e_0_energy">    -28.81244951 </i>
   </energy>
  </scstep>
  <scstep>
   <time name="diag">    0.66    0.66</time>
   <time name="diis">    4.28    4.29</time>
   <time name="orth">    0.02    0.02</time>
   <time name="total">    8.22    8.24</time>
   <energy>
    <i name="e_fr_energy">    -28.76214260 </i>
    <i name="e_wo_entrp">    -28.76214260 </i>
    <i name="e_0_energy">    -28.76214260 </i>
   </energy>
  </scstep>
  <scstep>
   <time name="diag">    0.67    0.67</time>
   <time name="diis">    3.61    3.62</time>
   <time name="orth">    0.02    0.02</time>
   <time name="total">    7.60    7.62</time>
   <energy>
    <i name="e_fr_energy">    -29.50393010 </i>
    <i name="e_wo_entrp">    -29.50393010 </i>
    <i name="e_0_energy">    -29.50393010 </i>
   </energy>
  </scstep>
  <scstep>
   <time name="diag">    0.67    0.67</time>
   <time name="diis">    3.63    3.64</time>
   <time name="orth">    0.02    0.02</time>
   <time name="total">    7.52    7.59</time>
   <energy>
    <i name="e_fr_energy">    -28.54070865 </i>
    <i name="e_wo_entrp">    -28.54070865 </i>
    <i name="e_0_energy">    -28.54070865 </i>
   </energy>
  </scstep>
  <scstep>
   <time name="diag">    0.67    0.67</time>
   <time name="diis">    4.29    4.31</time>
   <time name="orth">    0.02    0.02</time>
   <time name="total">    8.24    8.26</time>
   <energy>
    <i name="e_fr_energy">    -28.54286498 </i>
    <i name="e_wo_entrp">    -28.54286498 </i>
    <i name="e_0_energy">    -28.54286498 </i>
   </energy>
  </scstep>
  <scstep>
   <time name="diag">    0.67    0.67</time>
   <time name="diis">    3.75    3.77</time>
   <time name="orth">    0.02    0.02</time>
   <time name="total">    7.72    7.75</time>
   <energy>
    <i name="e_fr_energy">    -28.53373251 </i>
    <i name="e_wo_entrp">    -28.53373251 </i>
    <i name="e_0_energy">    -28.53373251 </i>
   </energy>
  </scstep>
  <scstep>
   <time name="diag">    0.67    0.67</time>
   <time name="diis">    3.43    3.44</time>
   <time name="orth">    0.02    0.02</time>
   <time name="total">    7.38    7.40</time>
   <energy>
    <i name="e_fr_energy">    -28.53026120 </i>
    <i name="e_wo_entrp">    -28.53026120 </i>
    <i name="e_0_energy">    -28.53026120 </i>
   </energy>
  </scstep>
  <scstep>
   <time name="diag">    0.67    0.67</time>
   <time name="diis">    4.17    4.18</time>
   <time name="orth">    0.02    0.02</time>
   <time name="total">    8.10    8.13</time>
   <energy>
    <i name="e_fr_energy">    -28.53242615 </i>
    <i name="e_wo_entrp">    -28.53242615 </i>
    <i name="e_0_energy">    -28.53242615 </i>
   </energy>
  </scstep>
  <scstep>
   <time name="diag">    0.67    0.67</time>
   <time name="diis">    3.52    3.53</time>
   <time name="orth">    0.02    0.02</time>
   <time name="total">    7.48    7.49</time>
   <energy>
    <i name="e_fr_energy">    -28.53452827 </i>
    <i name="e_wo_entrp">    -28.53452827 </i>
    <i name="e_0_energy">    -28.53452827 </i>
   </energy>
  </scstep>
  <scstep>
   <time name="diag">    0.67    0.67</time>
   <time name="diis">    3.45    3.45</time>
   <time name="orth">    0.02    0.02</time>
   <time name="total">    7.34    7.35</time>
   <energy>
    <i name="e_fr_energy">    -28.53661875 </i>
    <i name="e_wo_entrp">    -28.53661875 </i>
    <i name="e_0_energy">    -28.53661875 </i>
   </energy>
  </scstep>
  <scstep>
   <time name="diag">    0.66    0.66</time>
   <time name="diis">    4.11    4.22</time>
   <time name="orth">    0.02    0.02</time>
   <time name="total">    8.00    8.13</time>
   <energy>
    <i name="e_fr_energy">    -28.53721997 </i>
    <i name="e_wo_entrp">    -28.53721997 </i>
    <i name="e_0_energy">    -28.53721997 </i>
   </energy>
  </scstep>
  <scstep>
   <time name="diag">    0.66    0.67</time>
   <time name="diis">    3.44    3.45</time>
   <time name="orth">    0.02    0.02</time>
   <time name="total">    7.36    7.39</time>
   <energy>
    <i name="e_fr_energy">    -28.53878025 </i>
    <i name="e_wo_entrp">    -28.53878025 </i>
    <i name="e_0_energy">    -28.53878025 </i>
   </energy>
  </scstep>
  <scstep>
   <time name="diag">    0.65    0.66</time>
   <time name="diis">    3.64    3.64</time>
   <time name="orth">    0.02    0.02</time>
   <time name="total">    7.55    7.57</time>
   <energy>
    <i name="e_fr_energy">    -28.53980313 </i>
    <i name="e_wo_entrp">    -28.53980313 </i>
    <i name="e_0_energy">    -28.53980313 </i>
   </energy>
  </scstep>
  <scstep>
   <time name="diag">    0.67    0.67</time>
   <time name="diis">    3.73    3.74</time>
   <time name="orth">    0.02    0.02</time>
   <time name="total">    7.67    7.68</time>
   <energy>
    <i name="e_fr_energy">    -28.53981558 </i>
    <i name="e_wo_entrp">    -28.53981558 </i>
    <i name="e_0_energy">    -28.53981558 </i>
   </energy>
  </scstep>
  <scstep>
   <time name="diag">    0.66    0.66</time>
   <time name="diis">    3.52    3.52</time>
   <time name="orth">    0.02    0.02</time>
   <time name="total">    7.40    7.41</time>
   <energy>
    <i name="e_fr_energy">    -28.53950515 </i>
    <i name="e_wo_entrp">    -28.53950515 </i>
    <i name="e_0_energy">    -28.53950515 </i>
   </energy>
  </scstep>
  <scstep>
   <time name="diag">    0.66    0.66</time>
   <time name="diis">    4.04    4.04</time>
   <time name="orth">    0.02    0.02</time>
   <time name="total">    7.96    7.97</time>
   <energy>
    <i name="e_fr_energy">    -28.53882204 </i>
    <i name="e_wo_entrp">    -28.53882204 </i>
    <i name="e_0_energy">    -28.53882204 </i>
   </energy>
  </scstep>
  <scstep>
   <time name="diag">    0.66    0.66</time>
   <time name="diis">    3.44    3.45</time>
   <time name="orth">    0.02    0.02</time>
   <time name="total">    7.35    7.38</time>
   <energy>
    <i name="e_fr_energy">    -28.53892188 </i>
    <i name="e_wo_entrp">    -28.53892188 </i>
    <i name="e_0_energy">    -28.53892188 </i>
   </energy>
  </scstep>
  <scstep>
   <time name="diag">    0.66    0.66</time>
   <time name="diis">    3.75    3.76</time>
   <time name="orth">    0.02    0.02</time>
   <time name="total">    7.70    7.71</time>
   <energy>
    <i name="e_fr_energy">    -28.53867857 </i>
    <i name="e_wo_entrp">    -28.53867857 </i>
    <i name="e_0_energy">    -28.53867857 </i>
   </energy>
  </scstep>
  <scstep>
   <time name="diag">    0.66    0.66</time>
   <time name="diis">    2.86    2.96</time>
   <time name="orth">    0.02    0.02</time>
   <time name="total">    6.82    6.93</time>
   <energy>
    <i name="e_fr_energy">    -28.53900959 </i>
    <i name="e_wo_entrp">    -28.53900959 </i>
    <i name="e_0_energy">    -28.53900959 </i>
   </energy>
  </scstep>
  <scstep>
   <time name="diag">    0.66    0.67</time>
   <time name="diis">    3.47    3.47</time>
   <time name="orth">    0.02    0.02</time>
   <time name="total">    7.46    7.46</time>
   <energy>
    <i name="e_fr_energy">    -28.53900430 </i>
    <i name="e_wo_entrp">    -28.53900430 </i>
    <i name="e_0_energy">    -28.53900430 </i>
   </energy>
  </scstep>
  <scstep>
   <time name="diag">    0.66    0.66</time>
   <time name="diis">    3.12    3.12</time>
   <time name="orth">    0.02    0.02</time>
   <time name="total">    7.05    7.06</time>
   <energy>
    <i name="e_fr_energy">    -28.53990509 </i>
    <i name="e_wo_entrp">    -28.53990509 </i>
    <i name="e_0_energy">    -28.53990509 </i>
   </energy>
  </scstep>
  <scstep>
   <time name="diag">    0.66    0.66</time>
   <time name="diis">    3.84    3.84</time>
   <time name="orth">    0.02    0.02</time>
   <time name="total">    7.80    7.80</time>
   <energy>
    <i name="e_fr_energy">    -28.54024548 </i>
    <i name="e_wo_entrp">    -28.54024548 </i>
    <i name="e_0_energy">    -28.54024548 </i>
   </energy>
  </scstep>
  <scstep>
   <time name="diag">    0.66    0.66</time>
   <time name="diis">    2.97    2.97</time>
   <time name="orth">    0.02    0.02</time>
   <time name="total">    6.93    6.94</time>
   <energy>
    <i name="e_fr_energy">    -28.54087023 </i>
    <i name="e_wo_entrp">    -28.54087023 </i>
    <i name="e_0_energy">    -28.54087023 </i>
   </energy>
  </scstep>
  <scstep>
   <time name="diag">    0.66    0.66</time>
   <time name="diis">    4.19    4.19</time>
   <time name="orth">    0.02    0.02</time>
   <time name="total">    8.17    8.17</time>
   <energy>
    <i name="e_fr_energy">    -28.54112090 </i>
    <i name="e_wo_entrp">    -28.54112090 </i>
    <i name="e_0_energy">    -28.54112090 </i>
   </energy>
  </scstep>
  <scstep>
   <time name="diag">    0.66    0.66</time>
   <time name="diis">    3.46    3.46</time>
   <time name="orth">    0.02    0.02</time>
   <time name="total">    7.47    7.47</time>
   <energy>
    <i name="e_fr_energy">    -28.54144387 </i>
    <i name="e_wo_entrp">    -28.54144387 </i>
    <i name="e_0_energy">    -28.54144387 </i>
   </energy>
  </scstep>
  <scstep>
   <time name="diag">    0.66    0.66</time>
   <time name="diis">    3.41    3.42</time>
   <time name="orth">    0.02    0.02</time>
   <time name="total">    7.41    7.43</time>
   <energy>
    <i name="e_fr_energy">    -28.54152250 </i>
    <i name="e_wo_entrp">    -28.54152250 </i>
    <i name="e_0_energy">    -28.54152250 </i>
   </energy>
  </scstep>
  <scstep>
   <time name="diag">    0.66    0.66</time>
   <time name="diis">    3.77    3.84</time>
   <time name="orth">    0.02    0.02</time>
   <time name="total">    7.81    7.89</time>
   <energy>
    <i name="e_fr_energy">    -28.54156014 </i>
    <i name="e_wo_entrp">    -28.54156014 </i>
    <i name="e_0_energy">    -28.54156014 </i>
   </energy>
  </scstep>
  <scstep>
   <time name="diag">    0.67    0.67</time>
   <time name="diis">    3.40    3.40</time>
   <time name="orth">    0.02    0.02</time>
   <time name="total">    7.44    7.45</time>
   <energy>
    <i name="e_fr_energy">    -28.54158617 </i>
    <i name="e_wo_entrp">    -28.54158617 </i>
    <i name="e_0_energy">    -28.54158617 </i>
   </energy>
  </scstep>
  <scstep>
   <time name="diag">    0.66    0.66</time>
   <time name="diis">    4.06    4.08</time>
   <time name="orth">    0.02    0.02</time>
   <time name="total">    8.12    8.22</time>
   <energy>
    <i name="e_fr_energy">    -28.54159431 </i>
    <i name="e_wo_entrp">    -28.54159431 </i>
    <i name="e_0_energy">    -28.54159431 </i>
   </energy>
  </scstep>
  <scstep>
   <time name="diag">    0.66    0.66</time>
   <time name="diis">    3.32    3.32</time>
   <time name="orth">    0.02    0.02</time>
   <time name="total">    7.38    7.39</time>
   <energy>
    <i name="e_fr_energy">    -28.54160055 </i>
    <i name="e_wo_entrp">    -28.54160055 </i>
    <i name="e_0_energy">    -28.54160055 </i>
   </energy>
  </scstep>
  <scstep>
   <time name="diag">    0.67    0.67</time>
   <time name="diis">    3.31    3.32</time>
   <time name="orth">    0.02    0.02</time>
   <time name="total">    7.42    7.43</time>
   <energy>
    <i name="e_fr_energy">    -28.54160251 </i>
    <i name="e_wo_entrp">    -28.54160251 </i>
    <i name="e_0_energy">    -28.54160251 </i>
   </energy>
  </scstep>
  <scstep>
   <time name="diag">    0.66    0.66</time>
   <time name="diis">    3.03    3.03</time>
   <time name="orth">    0.02    0.02</time>
   <time name="total">    7.15    7.16</time>
   <energy>
    <i name="e_fr_energy">    -28.54160401 </i>
    <i name="e_wo_entrp">    -28.54160401 </i>
    <i name="e_0_energy">    -28.54160401 </i>
   </energy>
  </scstep>
  <scstep>
   <time name="diag">    0.66    0.66</time>
   <time name="diis">    2.92    2.92</time>
   <time name="orth">    0.02    0.02</time>
   <time name="total">    7.07    7.08</time>
   <energy>
    <i name="e_fr_energy">    -28.54160436 </i>
    <i name="e_wo_entrp">    -28.54160436 </i>
    <i name="e_0_energy">    -28.54160436 </i>
   </energy>
  </scstep>
  <scstep>
   <time name="diag">    0.67    0.67</time>
   <time name="diis">    2.60    2.61</time>
   <time name="orth">    0.02    0.02</time>
   <time name="total">    6.72    6.75</time>
   <energy>
    <i name="e_fr_energy">    -28.54160466 </i>
    <i name="e_wo_entrp">    -28.54160466 </i>
    <i name="e_0_energy">    -28.54160466 </i>
   </energy>
  </scstep>
  <scstep>
   <time name="diag">    0.67    0.67</time>
   <time name="diis">    2.66    2.68</time>
   <time name="orth">    0.02    0.02</time>
   <time name="total">    6.67    6.95</time>
   <energy>
    <i name="e_fr_energy">    -28.54160489 </i>
    <i name="e_wo_entrp">    -28.54160489 </i>
    <i name="e_0_energy">    -28.54160489 </i>
   </energy>
  </scstep>
  <scstep>
   <time name="diag">    0.67    0.67</time>
   <time name="diis">    2.52    2.52</time>
   <time name="orth">    0.02    0.02</time>
   <time name="total">    6.67    6.70</time>
   <energy>
    <i name="e_fr_energy">    -28.54160501 </i>
    <i name="e_wo_entrp">    -28.54160501 </i>
    <i name="e_0_energy">    -28.54160501 </i>
   </energy>
  </scstep>
  <scstep>
   <time name="diag">    0.66    0.66</time>
   <time name="diis">    2.41    2.42</time>
   <time name="orth">    0.02    0.02</time>
   <time name="total">    6.58    6.61</time>
   <energy>
    <i name="e_fr_energy">    -28.54160513 </i>
    <i name="e_wo_entrp">    -28.54160513 </i>
    <i name="e_0_energy">    -28.54160513 </i>
   </energy>
  </scstep>
  <scstep>
   <time name="diag">    0.67    0.67</time>
   <time name="diis">    2.56    2.58</time>
   <time name="orth">    0.02    0.02</time>
   <time name="total">    6.76    6.79</time>
   <energy>
    <i name="e_fr_energy">    -28.54160519 </i>
    <i name="e_wo_entrp">    -28.54160519 </i>
    <i name="e_0_energy">    -28.54160519 </i>
   </energy>
  </scstep>
  <scstep>
   <time name="diag">    0.66    0.67</time>
   <time name="diis">    2.51    2.53</time>
   <time name="orth">    0.02    0.02</time>
   <time name="total">    6.72    6.75</time>
   <energy>
    <i name="e_fr_energy">    -28.54160552 </i>
    <i name="e_wo_entrp">    -28.54160552 </i>
    <i name="e_0_energy">    -28.54160552 </i>
   </energy>
  </scstep>
  <scstep>
   <time name="diag">    0.67    0.67</time>
   <time name="diis">    2.45    2.46</time>
   <time name="orth">    0.02    0.02</time>
   <time name="total">    6.67    6.70</time>
   <energy>
    <i name="e_fr_energy">    -28.54160564 </i>
    <i name="e_wo_entrp">    -28.54160564 </i>
    <i name="e_0_energy">    -28.54160564 </i>
   </energy>
  </scstep>
  <scstep>
   <time name="diag">    0.66    0.66</time>
   <time name="diis">    2.61    2.61</time>
   <time name="orth">    0.02    0.02</time>
   <time name="total">    6.89    6.89</time>
   <energy>
    <i name="e_fr_energy">    -28.54160584 </i>
    <i name="e_wo_entrp">    -28.54160584 </i>
    <i name="e_0_energy">    -28.54160584 </i>
   </energy>
  </scstep>
  <scstep>
   <time name="diag">    0.66    0.66</time>
   <time name="diis">    2.60    2.61</time>
   <time name="orth">    0.02    0.02</time>
   <time name="total">    6.86    6.88</time>
   <energy>
    <i name="e_fr_energy">    -28.54160591 </i>
    <i name="e_wo_entrp">    -28.54160591 </i>
    <i name="e_0_energy">    -28.54160591 </i>
   </energy>
  </scstep>
  <scstep>
   <time name="diag">    0.66    0.67</time>
   <time name="diis">    2.63    2.65</time>
   <time name="orth">    0.02    0.02</time>
   <time name="total">    6.91    6.95</time>
   <energy>
    <i name="e_fr_energy">    -28.54160594 </i>
    <i name="e_wo_entrp">    -28.54160594 </i>
    <i name="e_0_energy">    -28.54160594 </i>
   </energy>
  </scstep>
  <scstep>
   <time name="diag">    0.66    0.67</time>
   <time name="diis">    2.19    2.39</time>
   <time name="orth">    0.02    0.02</time>
   <time name="total">    6.48    6.70</time>
   <energy>
    <i name="e_fr_energy">    -28.54160597 </i>
    <i name="e_wo_entrp">    -28.54160597 </i>
    <i name="e_0_energy">    -28.54160597 </i>
   </energy>
  </scstep>
  <scstep>
   <time name="diag">    0.66    0.67</time>
   <time name="diis">    2.37    2.38</time>
   <time name="orth">    0.02    0.02</time>
   <time name="total">    6.58    6.63</time>
   <energy>
    <i name="e_fr_energy">    -28.54160598 </i>
    <i name="e_wo_entrp">    -28.54160598 </i>
    <i name="e_0_energy">    -28.54160598 </i>
   </energy>
  </scstep>
  <scstep>
   <time name="diag">    0.66    0.66</time>
   <time name="diis">    2.43    2.44</time>
   <time name="orth">    0.02    0.02</time>
   <time name="total">    5.83    5.86</time>
   <energy>
    <i name="alphaZ">      0.21758540 </i>
    <i name="ewald">    494.05636670 </i>
    <i name="hartreedc">  -1284.22625993 </i>
    <i name="XCdc">     64.05777479 </i>
    <i name="pawpsdc">   5052.34347432 </i>
    <i name="pawaedc">  -5055.23977638 </i>
    <i name="eentropy">     -0.00000000 </i>
    <i name="bandstr">   -214.45443956 </i>
    <i name="atom">    914.70366869 </i>
    <i name="e_fr_energy">    -28.54160598 </i>
    <i name="e_wo_entrp">    -28.54160598 </i>
    <i name="e_0_energy">    -28.54160598 </i>
   </energy>
  </scstep>
  <structure>
   <crystal>
    <varray name="basis" >
     <v>      30.00000000       0.00000000       0.00000000 </v>
     <v>       0.00000000      10.00000000       0.00000000 </v>
     <v>       0.00000000       0.00000000      10.00000000 </v>
    </varray>
    <i name="volume">   3000.00000000 </i>
    <varray name="rec_basis" >
     <v>       0.03333333       0.00000000       0.00000000 </v>
     <v>       0.00000000       0.10000000       0.00000000 </v>
     <v>       0.00000000       0.00000000       0.10000000 </v>
    </varray>
   </crystal>
   <varray name="positions" >
    <v>       0.05953563       0.15710957       0.17600000 </v>
    <v>       0.95513104       0.15710957       0.17600000 </v>
    <v>       0.07021080       0.25541218       0.17439231 </v>
    <v>       0.02613922       0.16672783       0.17649328 </v>
    <v>       0.94612303       0.09941802       0.25610440 </v>
    <v>       0.94624850       0.09907990       0.09607226 </v>
   </varray>
  </structure>
  <varray name="forces" >
   <v>      -0.45550068       2.49478877      -0.03173675 </v>
   <v>      -0.96969360      -2.31683842       0.01695609 </v>
   <v>      -0.79861157      -2.40460965       0.03981478 </v>
   <v>       1.11170273      -0.09831064      -0.00981790 </v>
   <v>       0.56110625       1.16319024      -1.68340850 </v>
   <v>       0.55099686       1.16177970       1.66819228 </v>
  </varray>
  <varray name="stress" >
   <v>      -1.15465933      -0.70485450       0.01468312 </v>
   <v>      -0.70485450      -2.00747700       0.02204043 </v>
   <v>       0.01468312       0.02204043      -1.44255356 </v>
  </varray>
  <energy>
   <i name="e_fr_energy">    -28.54160598 </i>
   <i name="e_wo_entrp">    -28.54160598 </i>
   <i name="e_0_energy">     -0.00000000 </i>
  </energy>
  <time name="totalsc">  365.91  367.96</time>
  <eigenvalues>
   <array>
    <dimension dim="1">band</dimension>
    <dimension dim="2">kpoint</dimension>
    <dimension dim="3">spin</dimension>
    <field>eigene</field>
    <field>occ</field>
    <set>
     <set comment="spin 1">
      <set comment="kpoint 1">
       <r>  -25.3764    1.0000 </r>
       <r>  -24.0353    1.0000 </r>
       <r>  -13.1360    1.0000 </r>
       <r>  -11.8713    1.0000 </r>
       <r>   -9.9924    1.0000 </r>
       <r>   -8.6459    1.0000 </r>
       <r>   -7.7311    1.0000 </r>
       <r>   -6.4388    1.0000 </r>
       <r>   -1.4978    0.0000 </r>
       <r>   -0.2820    0.0000 </r>
       <r>    0.0411    0.0000 </r>
       <r>    0.2108    0.0000 </r>
      </set>
      <set comment="kpoint 2">
       <r>  -25.3764    1.0000 </r>
       <r>  -24.0353    1.0000 </r>
       <r>  -13.1360    1.0000 </r>
       <r>  -11.8713    1.0000 </r>
       <r>   -9.9924    1.0000 </r>
       <r>   -8.6459    1.0000 </r>
       <r>   -7.7311    1.0000 </r>
       <r>   -6.4388    1.0000 </r>
       <r>   -1.4978    0.0000 </r>
       <r>   -0.2822    0.0000 </r>
       <r>    0.0418    0.0000 </r>
       <r>    0.2104    0.0000 </r>
      </set>
     </set>
    </set>
   </array>
  </eigenvalues>
  <separator name="orbital magnetization" >
   <v name="MAGDIPOLOUT">      0.00000000      0.00000000      0.00000000</v>
  </separator>
  <dos>
   <i name="efermi">     -6.19130100 </i>
   <total>
    <array>
     <dimension dim="1">gridpoints</dimension>
     <dimension dim="2">spin</dimension>
     <field>energy</field>
     <field>total</field>
     <field>integrated</field>
     <set>
      <set comment="spin 1">
       <r>   -26.6558     0.0000     0.0000 </r>
       <r>   -26.5620     0.0000     0.0000 </r>
       <r>   -26.4681     0.0000     0.0000 </r>
       <r>   -26.3743     0.0000     0.0000 </r>
       <r>   -26.2805     0.0000     0.0000 </r>
       <r>   -26.1867     0.0000     0.0000 </r>
       <r>   -26.0929     0.0000     0.0000 </r>
       <r>   -25.9990     0.0000     0.0000 </r>
       <r>   -25.9052     0.0000     0.0000 </r>
       <r>   -25.8114     0.0000     0.0000 </r>
       <r>   -25.7176     0.0000     0.0000 </r>
       <r>   -25.6238     0.0000     0.0000 </r>
       <r>   -25.5299     0.0002     0.0000 </r>
       <r>   -25.4361     0.9728     0.0913 </r>
       <r>   -25.3423    16.7784     1.6654 </r>
       <r>   -25.2485     3.5629     1.9997 </r>
       <r>   -25.1547     0.0032     2.0000 </r>
       <r>   -25.0608     0.0000     2.0000 </r>
       <r>   -24.9670     0.0000     2.0000 </r>
       <r>   -24.8732     0.0000     2.0000 </r>
       <r>   -24.7794     0.0000     2.0000 </r>
       <r>   -24.6856     0.0000     2.0000 </r>
       <r>   -24.5917     0.0000     2.0000 </r>
       <r>   -24.4979     0.0000     2.0000 </r>
       <r>   -24.4041     0.0000     2.0000 </r>
       <r>   -24.3103     0.0000     2.0000 </r>
       <r>   -24.2165     0.0000     2.0000 </r>
       <r>   -24.1226     0.1437     2.0135 </r>
       <r>   -24.0288    12.0624     3.1452 </r>
       <r>   -23.9350     9.0627     3.9954 </r>
       <r>   -23.8412     0.0486     4.0000 </r>
       <r>   -23.7474     0.0000     4.0000 </r>
       <r>   -23.6535     0.0000     4.0000 </r>
       <r>   -23.5597     0.0000     4.0000 </r>
       <r>   -23.4659     0.0000     4.0000 </r>
       <r>   -23.3721     0.0000     4.0000 </r>
       <r>   -23.2783     0.0000     4.0000 </r>
       <r>   -23.1844     0.0000     4.0000 </r>
       <r>   -23.0906     0.0000     4.0000 </r>
       <r>   -22.9968     0.0000     4.0000 </r>
       <r>   -22.9030     0.0000     4.0000 </r>
       <r>   -22.8092     0.0000     4.0000 </r>
       <r>   -22.7153     0.0000     4.0000 </r>
       <r>   -22.6215     0.0000     4.0000 </r>
       <r>   -22.5277     0.0000     4.0000 </r>
       <r>   -22.4339     0.0000     4.0000 </r>
       <r>   -22.3401     0.0000     4.0000 </r>
       <r>   -22.2462     0.0000     4.0000 </r>
       <r>   -22.1524     0.0000     4.0000 </r>
       <r>   -22.0586     0.0000     4.0000 </r>
       <r>   -21.9648     0.0000     4.0000 </r>
       <r>   -21.8710     0.0000     4.0000 </r>
       <r>   -21.7771     0.0000     4.0000 </r>
       <r>   -21.6833     0.0000     4.0000 </r>
       <r>   -21.5895     0.0000     4.0000 </r>
       <r>   -21.4957     0.0000     4.0000 </r>
       <r>   -21.4019     0.0000     4.0000 </r>
       <r>   -21.3080     0.0000     4.0000 </r>
       <r>   -21.2142     0.0000     4.0000 </r>
       <r>   -21.1204     0.0000     4.0000 </r>
       <r>   -21.0266     0.0000     4.0000 </r>
       <r>   -20.9328     0.0000     4.0000 </r>
       <r>   -20.8389     0.0000     4.0000 </r>
       <r>   -20.7451     0.0000     4.0000 </r>
       <r>   -20.6513     0.0000     4.0000 </r>
       <r>   -20.5575     0.0000     4.0000 </r>
       <r>   -20.4637     0.0000     4.0000 </r>
       <r>   -20.3698     0.0000     4.0000 </r>
       <r>   -20.2760     0.0000     4.0000 </r>
       <r>   -20.1822     0.0000     4.0000 </r>
       <r>   -20.0884     0.0000     4.0000 </r>
       <r>   -19.9946     0.0000     4.0000 </r>
       <r>   -19.9007     0.0000     4.0000 </r>
       <r>   -19.8069     0.0000     4.0000 </r>
       <r>   -19.7131     0.0000     4.0000 </r>
       <r>   -19.6193     0.0000     4.0000 </r>
       <r>   -19.5255     0.0000     4.0000 </r>
       <r>   -19.4316     0.0000     4.0000 </r>
       <r>   -19.3378     0.0000     4.0000 </r>
       <r>   -19.2440     0.0000     4.0000 </r>
       <r>   -19.1502     0.0000     4.0000 </r>
       <r>   -19.0564     0.0000     4.0000 </r>
       <r>   -18.9625     0.0000     4.0000 </r>
       <r>   -18.8687     0.0000     4.0000 </r>
       <r>   -18.7749     0.0000     4.0000 </r>
       <r>   -18.6811     0.0000     4.0000 </r>
       <r>   -18.5873     0.0000     4.0000 </r>
       <r>   -18.4934     0.0000     4.0000 </r>
       <r>   -18.3996     0.0000     4.0000 </r>
       <r>   -18.3058     0.0000     4.0000 </r>
       <r>   -18.2120     0.0000     4.0000 </r>
       <r>   -18.1182     0.0000     4.0000 </r>
       <r>   -18.0243     0.0000     4.0000 </r>
       <r>   -17.9305     0.0000     4.0000 </r>
       <r>   -17.8367     0.0000     4.0000 </r>
       <r>   -17.7429     0.0000     4.0000 </r>
       <r>   -17.6491     0.0000     4.0000 </r>
       <r>   -17.5552     0.0000     4.0000 </r>
       <r>   -17.4614     0.0000     4.0000 </r>
       <r>   -17.3676     0.0000     4.0000 </r>
       <r>   -17.2738     0.0000     4.0000 </r>
       <r>   -17.1800     0.0000     4.0000 </r>
       <r>   -17.0861     0.0000     4.0000 </r>
       <r>   -16.9923     0.0000     4.0000 </r>
       <r>   -16.8985     0.0000     4.0000 </r>
       <r>   -16.8047     0.0000     4.0000 </r>
       <r>   -16.7109     0.0000     4.0000 </r>
       <r>   -16.6170     0.0000     4.0000 </r>
       <r>   -16.5232     0.0000     4.0000 </r>
       <r>   -16.4294     0.0000     4.0000 </r>
       <r>   -16.3356     0.0000     4.0000 </r>
       <r>   -16.2418     0.0000     4.0000 </r>
       <r>   -16.1479     0.0000     4.0000 </r>
       <r>   -16.0541     0.0000     4.0000 </r>
       <r>   -15.9603     0.0000     4.0000 </r>
       <r>   -15.8665     0.0000     4.0000 </r>
       <r>   -15.7727     0.0000     4.0000 </r>
       <r>   -15.6788     0.0000     4.0000 </r>
       <r>   -15.5850     0.0000     4.0000 </r>
       <r>   -15.4912     0.0000     4.0000 </r>
       <r>   -15.3974     0.0000     4.0000 </r>
       <r>   -15.3036     0.0000     4.0000 </r>
       <r>   -15.2097     0.0000     4.0000 </r>
       <r>   -15.1159     0.0000     4.0000 </r>
       <r>   -15.0221     0.0000     4.0000 </r>
       <r>   -14.9283     0.0000     4.0000 </r>
       <r>   -14.8345     0.0000     4.0000 </r>
       <r>   -14.7406     0.0000     4.0000 </r>
       <r>   -14.6468     0.0000     4.0000 </r>
       <r>   -14.5530     0.0000     4.0000 </r>
       <r>   -14.4592     0.0000     4.0000 </r>
       <r>   -14.3654     0.0000     4.0000 </r>
       <r>   -14.2715     0.0000     4.0000 </r>
       <r>   -14.1777     0.0000     4.0000 </r>
       <r>   -14.0839     0.0000     4.0000 </r>
       <r>   -13.9901     0.0000     4.0000 </r>
       <r>   -13.8963     0.0000     4.0000 </r>
       <r>   -13.8024     0.0000     4.0000 </r>
       <r>   -13.7086     0.0000     4.0000 </r>
       <r>   -13.6148     0.0000     4.0000 </r>
       <r>   -13.5210     0.0000     4.0000 </r>
       <r>   -13.4272     0.0000     4.0000 </r>
       <r>   -13.3333     0.0000     4.0000 </r>
       <r>   -13.2395     0.0363     4.0034 </r>
       <r>   -13.1457     8.3137     4.7834 </r>
       <r>   -13.0519    12.7822     5.9826 </r>
       <r>   -12.9581     0.1852     6.0000 </r>
       <r>   -12.8642     0.0000     6.0000 </r>
       <r>   -12.7704     0.0000     6.0000 </r>
       <r>   -12.6766     0.0000     6.0000 </r>
       <r>   -12.5828     0.0000     6.0000 </r>
       <r>   -12.4890     0.0000     6.0000 </r>
       <r>   -12.3951     0.0000     6.0000 </r>
       <r>   -12.3013     0.0000     6.0000 </r>
       <r>   -12.2075     0.0000     6.0000 </r>
       <r>   -12.1137     0.0000     6.0000 </r>
       <r>   -12.0199     0.0003     6.0000 </r>
       <r>   -11.9260     1.2980     6.1218 </r>
       <r>   -11.8322    17.1566     7.7314 </r>
       <r>   -11.7384     2.8607     7.9998 </r>
       <r>   -11.6446     0.0018     8.0000 </r>
       <r>   -11.5508     0.0000     8.0000 </r>
       <r>   -11.4569     0.0000     8.0000 </r>
       <r>   -11.3631     0.0000     8.0000 </r>
       <r>   -11.2693     0.0000     8.0000 </r>
       <r>   -11.1755     0.0000     8.0000 </r>
       <r>   -11.0817     0.0000     8.0000 </r>
       <r>   -10.9878     0.0000     8.0000 </r>
       <r>   -10.8940     0.0000     8.0000 </r>
       <r>   -10.8002     0.0000     8.0000 </r>
       <r>   -10.7064     0.0000     8.0000 </r>
       <r>   -10.6126     0.0000     8.0000 </r>
       <r>   -10.5187     0.0000     8.0000 </r>
       <r>   -10.4249     0.0000     8.0000 </r>
       <r>   -10.3311     0.0000     8.0000 </r>
       <r>   -10.2373     0.0000     8.0000 </r>
       <r>   -10.1435     0.0002     8.0000 </r>
       <r>   -10.0496     1.1212     8.1052 </r>
       <r>    -9.9558    16.9839     9.6986 </r>
       <r>    -9.8620     3.2097     9.9998 </r>
       <r>    -9.7682     0.0024    10.0000 </r>
       <r>    -9.6744     0.0000    10.0000 </r>
       <r>    -9.5805     0.0000    10.0000 </r>
       <r>    -9.4867     0.0000    10.0000 </r>
       <r>    -9.3929     0.0000    10.0000 </r>
       <r>    -9.2991     0.0000    10.0000 </r>
       <r>    -9.2053     0.0000    10.0000 </r>
       <r>    -9.1114     0.0000    10.0000 </r>
       <r>    -9.0176     0.0000    10.0000 </r>
       <r>    -8.9238     0.0000    10.0000 </r>
       <r>    -8.8300     0.0000    10.0000 </r>
       <r>    -8.7362     0.1137    10.0107 </r>
       <r>    -8.6423    11.3968    11.0799 </r>
       <r>    -8.5485     9.7441    11.9941 </r>
       <r>    -8.4547     0.0628    12.0000 </r>
       <r>    -8.3609     0.0000    12.0000 </r>
       <r>    -8.2671     0.0000    12.0000 </r>
       <r>    -8.1732     0.0000    12.0000 </r>
       <r>    -8.0794     0.0000    12.0000 </r>
       <r>    -7.9856     0.0000    12.0000 </r>
       <r>    -7.8918     0.0001    12.0000 </r>
       <r>    -7.7980     0.6225    12.0584 </r>
       <r>    -7.7041    15.9340    13.5533 </r>
       <r>    -7.6103     4.7541    13.9994 </r>
       <r>    -7.5165     0.0068    14.0000 </r>
       <r>    -7.4227     0.0000    14.0000 </r>
       <r>    -7.3289     0.0000    14.0000 </r>
       <r>    -7.2350     0.0000    14.0000 </r>
       <r>    -7.1412     0.0000    14.0000 </r>
       <r>    -7.0474     0.0000    14.0000 </r>
       <r>    -6.9536     0.0000    14.0000 </r>
       <r>    -6.8598     0.0000    14.0000 </r>
       <r>    -6.7659     0.0000    14.0000 </r>
       <r>    -6.6721     0.0000    14.0000 </r>
       <r>    -6.5783     0.0009    14.0001 </r>
       <r>    -6.4845     2.0957    14.1967 </r>
       <r>    -6.3907    17.3769    15.8270 </r>
       <r>    -6.2968     1.8434    15.9999 </r>
       <r>    -6.2030     0.0006    16.0000 </r>
       <r>    -6.1092     0.0000    16.0000 </r>
       <r>    -6.0154     0.0000    16.0000 </r>
       <r>    -5.9216     0.0000    16.0000 </r>
       <r>    -5.8277     0.0000    16.0000 </r>
       <r>    -5.7339     0.0000    16.0000 </r>
       <r>    -5.6401     0.0000    16.0000 </r>
       <r>    -5.5463     0.0000    16.0000 </r>
       <r>    -5.4525     0.0000    16.0000 </r>
       <r>    -5.3586     0.0000    16.0000 </r>
       <r>    -5.2648     0.0000    16.0000 </r>
       <r>    -5.1710     0.0000    16.0000 </r>
       <r>    -5.0772     0.0000    16.0000 </r>
       <r>    -4.9834     0.0000    16.0000 </r>
       <r>    -4.8895     0.0000    16.0000 </r>
       <r>    -4.7957     0.0000    16.0000 </r>
       <r>    -4.7019     0.0000    16.0000 </r>
       <r>    -4.6081     0.0000    16.0000 </r>
       <r>    -4.5143     0.0000    16.0000 </r>
       <r>    -4.4204     0.0000    16.0000 </r>
       <r>    -4.3266     0.0000    16.0000 </r>
       <r>    -4.2328     0.0000    16.0000 </r>
       <r>    -4.1390     0.0000    16.0000 </r>
       <r>    -4.0452     0.0000    16.0000 </r>
       <r>    -3.9513     0.0000    16.0000 </r>
       <r>    -3.8575     0.0000    16.0000 </r>
       <r>    -3.7637     0.0000    16.0000 </r>
       <r>    -3.6699     0.0000    16.0000 </r>
       <r>    -3.5761     0.0000    16.0000 </r>
       <r>    -3.4822     0.0000    16.0000 </r>
       <r>    -3.3884     0.0000    16.0000 </r>
       <r>    -3.2946     0.0000    16.0000 </r>
       <r>    -3.2008     0.0000    16.0000 </r>
       <r>    -3.1070     0.0000    16.0000 </r>
       <r>    -3.0131     0.0000    16.0000 </r>
       <r>    -2.9193     0.0000    16.0000 </r>
       <r>    -2.8255     0.0000    16.0000 </r>
       <r>    -2.7317     0.0000    16.0000 </r>
       <r>    -2.6379     0.0000    16.0000 </r>
       <r>    -2.5440     0.0000    16.0000 </r>
       <r>    -2.4502     0.0000    16.0000 </r>
       <r>    -2.3564     0.0000    16.0000 </r>
       <r>    -2.2626     0.0000    16.0000 </r>
       <r>    -2.1688     0.0000    16.0000 </r>
       <r>    -2.0749     0.0000    16.0000 </r>
       <r>    -1.9811     0.0000    16.0000 </r>
       <r>    -1.8873     0.0000    16.0000 </r>
       <r>    -1.7935     0.0000    16.0000 </r>
       <r>    -1.6997     0.0000    16.0000 </r>
       <r>    -1.6058     0.0239    16.0022 </r>
       <r>    -1.5120     7.2985    16.6870 </r>
       <r>    -1.4182    13.7349    17.9756 </r>
       <r>    -1.3244     0.2601    18.0000 </r>
       <r>    -1.2306     0.0000    18.0000 </r>
       <r>    -1.1367     0.0000    18.0000 </r>
       <r>    -1.0429     0.0000    18.0000 </r>
       <r>    -0.9491     0.0000    18.0000 </r>
       <r>    -0.8553     0.0000    18.0000 </r>
       <r>    -0.7615     0.0000    18.0000 </r>
       <r>    -0.6676     0.0000    18.0000 </r>
       <r>    -0.5738     0.0000    18.0000 </r>
       <r>    -0.4800     0.0000    18.0000 </r>
       <r>    -0.3862     0.0345    18.0032 </r>
       <r>    -0.2924     8.1889    18.7715 </r>
       <r>    -0.1985    12.9009    19.9819 </r>
       <r>    -0.1047     0.1935    20.0000 </r>
       <r>    -0.0109     1.4780    20.1387 </r>
       <r>     0.0829    17.2750    21.7594 </r>
       <r>     0.1767     6.1644    22.3378 </r>
       <r>     0.2706    16.7576    23.9100 </r>
       <r>     0.3644     0.9594    24.0000 </r>
       <r>     0.4582     0.0001    24.0000 </r>
       <r>     0.5520     0.0000    24.0000 </r>
       <r>     0.6458     0.0000    24.0000 </r>
       <r>     0.7397     0.0000    24.0000 </r>
       <r>     0.8335     0.0000    24.0000 </r>
       <r>     0.9273     0.0000    24.0000 </r>
       <r>     1.0211     0.0000    24.0000 </r>
       <r>     1.1149     0.0000    24.0000 </r>
       <r>     1.2088     0.0000    24.0000 </r>
       <r>     1.3026     0.0000    24.0000 </r>
       <r>     1.3964     0.0000    24.0000 </r>
       <r>     1.4902     0.0000    24.0000 </r>
      </set>
     </set>
    </array>
   </total>
  </dos>
 </calculation>
 <structure name="finalpos" >
  <crystal>
   <varray name="basis" >
    <v>      30.00000000       0.00000000       0.00000000 </v>
    <v>       0.00000000      10.00000000       0.00000000 </v>
    <v>       0.00000000       0.00000000      10.00000000 </v>
   </varray>
   <i name="volume">   3000.00000000 </i>
   <varray name="rec_basis" >
    <v>       0.03333333       0.00000000       0.00000000 </v>
    <v>       0.00000000       0.10000000       0.00000000 </v>
    <v>       0.00000000       0.00000000       0.10000000 </v>
   </varray>
  </crystal>
  <varray name="positions" >
   <v>       0.05953563       0.15710957       0.17600000 </v>
   <v>       0.95513104       0.15710957       0.17600000 </v>
   <v>       0.07021080       0.25541218       0.17439231 </v>
   <v>       0.02613922       0.16672783       0.17649328 </v>
   <v>       0.94612303       0.09941802       0.25610440 </v>
   <v>       0.94624850       0.09907990       0.09607226 </v>
  </varray>
 </structure>
</modeling>
