
     Program PWSCF v.5.4.0 starts on 22Sep2019 at 19: 3: 8 

     This program is part of the open-source Quantum ESPRESSO suite
     for quantum simulation of materials; please cite
         "P. Giannozzi et al., J. Phys.:Condens. Matter 21 395502 (2009);
          URL http://www.quantum-espresso.org", 
     in publications or presentations arising from this work. More details at
     http://www.quantum-espresso.org/quote

           HOST :    @host@
           ARCH :    
             CC :    cc
            CPP :    cpp
            F90 :    mpif90
            F77 :    gfortran
         DFLAGS :    -D__GFORTRAN -D__STD_F95 -D__FFTW3 -D__MPI -D__PARA
      BLAS LIBS :    -lopenblas
    LAPACK LIBS :    -lopenblas
       FFT LIBS :    -lfftw3
      MASS LIBS :    

     Parallel version (MPI), running on    28 processors
     R & G space division:  proc/nbgrp/npool/nimage =      28
     Waiting for input...
     Reading input from standard input
Warning: card &IONS ignored
Warning: card / ignored
Warning: card &CELL ignored
Warning: card / ignored

     Current dimensions of program PWSCF are:
     Max number of different atomic species (ntypx) = 10
     Max number of k-points (npk) =  40000
     Max angular momentum in pseudopotentials (lmaxx) =  3

     IMPORTANT: XC functional enforced from input :
     Exchange-correlation      = PBE ( 1  4  3  4 0 0)
     Any further DFT definition will be discarded
     Please, verify this is what you really want


     gamma-point specific algorithms are used

     Subspace diagonalization in iterative solution of the eigenvalue problem:
     a serial algorithm will be used


     Parallelization info
     --------------------
     sticks:   dense  smooth     PW     G-vecs:    dense   smooth      PW
     Min         445     445    110                37558    37558    4694
     Max         448     448    112                37564    37564    4708
     Sum       12517   12517   3125              1051747  1051747  131683
     Tot        6259    6259   1563



     bravais-lattice index     =            1
     lattice parameter (alat)  =      18.8973  a.u.
     unit-cell volume          =    6748.3346 (a.u.)^3
     number of atoms/cell      =            5
     number of atomic types    =            2
     number of electrons       =         8.00
     number of Kohn-Sham states=            4
     kinetic-energy cutoff     =     110.0000  Ry
     charge density cutoff     =     440.0000  Ry
     convergence threshold     =      1.0E-06
     mixing beta               =       0.5000
     number of iterations used =            8  plain     mixing
     Exchange-correlation      = PBE ( 1  4  3  4 0 0)

     celldm(1)=  18.897261  celldm(2)=   0.000000  celldm(3)=   0.000000
     celldm(4)=   0.000000  celldm(5)=   0.000000  celldm(6)=   0.000000

     crystal axes: (cart. coord. in units of alat)
               a(1) = (   1.000000   0.000000   0.000000 )  
               a(2) = (   0.000000   1.000000   0.000000 )  
               a(3) = (   0.000000   0.000000   1.000000 )  

     reciprocal axes: (cart. coord. in units 2 pi/alat)
               b(1) = (  1.000000  0.000000  0.000000 )  
               b(2) = (  0.000000  1.000000  0.000000 )  
               b(3) = (  0.000000  0.000000  1.000000 )  


     PseudoPot. # 1 for  H read from file:
     ../pseudo/H.tm.pbe.UPF
     MD5 check sum: 4b614d66af87240b7a5107bfa527a767
     Pseudo is Norm-conserving, Zval =  1.0
     Generated using "atomic" code by A. Dal Corso  v.5.2.0
     Using radial grid of  929 points,  0 beta functions with: 

     PseudoPot. # 2 for  C read from file:
     ../pseudo/C.tm.pbe.UPF
     MD5 check sum: a4f27fcb9b24331b00ace8e732a7e062
     Pseudo is Norm-conserving, Zval =  4.0
     Generated using "atomic" code by A. Dal Corso  v.5.2.0
     Using radial grid of 1073 points,  1 beta functions with: 
                l(1) =   1

     atomic species   valence    mass     pseudopotential
        H              1.00     1.00000      H( 1.00)
        C              4.00     1.00000      C( 1.00)

     No symmetry found



   Cartesian axes

     site n.     atom                  positions (alat units)
         1           H   tau(   1) = (   0.5430030   0.4106520   0.3609800  )
         2           H   tau(   2) = (   0.4012520   0.4797710   0.4421810  )
         3           H   tau(   3) = (   0.5554930   0.5706820   0.4378820  )
         4           H   tau(   4) = (   0.5348920   0.4177040   0.5336070  )
         5           C   tau(   5) = (   0.5075340   0.4716220   0.4434850  )

     number of k points=     1
                       cart. coord. in units 2pi/alat
        k(    1) = (   0.0000000   0.0000000   0.0000000), wk =   2.0000000

     Dense  grid:   525874 G-vectors     FFT dimensions: ( 128, 128, 128)

     Largest allocated arrays     est. size (Mb)     dimensions
        Kohn-Sham Wavefunctions         0.14 Mb     (    2354,    4)
        NL pseudopotentials             0.11 Mb     (    2354,    3)
        Each V/rho on FFT grid          1.25 Mb     (   81920)
        Each G-vector array             0.14 Mb     (   18782)
        G-vector shells                 0.02 Mb     (    2785)
     Largest temporary arrays     est. size (Mb)     dimensions
        Auxiliary wavefunctions         0.29 Mb     (    2354,   16)
        Each subspace H/S matrix        0.00 Mb     (      16,   16)
        Each <psi_i|beta_j> matrix      0.00 Mb     (       3,    4)
        Arrays for rho mixing          10.00 Mb     (   81920,    8)

     Initial potential from superposition of free atoms
     Check: negative starting charge=   -0.000385

     starting charge    7.99992, renormalised to    8.00000

     negative rho (up, down):  3.848E-04 0.000E+00
     Starting wfc are    8 randomized atomic wfcs

     total cpu time spent up to now is        2.8 secs

     per-process dynamical memory:   430.7 Mb

     Self-consistent Calculation

     iteration #  1     ecut=   110.00 Ry     beta=0.50
     Davidson diagonalization with overlap
     ethr =  1.00E-02,  avg # of iterations =  2.0

     negative rho (up, down):  1.812E-04 0.000E+00

     total cpu time spent up to now is        3.4 secs

     total energy              =     -16.01516716 Ry
     Harris-Foulkes estimate   =     -16.42145773 Ry
     estimated scf accuracy    <       0.72114580 Ry

     iteration #  2     ecut=   110.00 Ry     beta=0.50
     Davidson diagonalization with overlap
     ethr =  9.01E-03,  avg # of iterations =  2.0

     negative rho (up, down):  9.414E-05 0.000E+00

     total cpu time spent up to now is        4.0 secs

     total energy              =     -16.15239321 Ry
     Harris-Foulkes estimate   =     -16.17096547 Ry
     estimated scf accuracy    <       0.04879409 Ry

     iteration #  3     ecut=   110.00 Ry     beta=0.50
     Davidson diagonalization with overlap
     ethr =  6.10E-04,  avg # of iterations =  1.0

     negative rho (up, down):  4.543E-06 0.000E+00

     total cpu time spent up to now is        4.3 secs

     total energy              =     -16.15038948 Ry
     Harris-Foulkes estimate   =     -16.15580799 Ry
     estimated scf accuracy    <       0.01136717 Ry

     iteration #  4     ecut=   110.00 Ry     beta=0.50
     Davidson diagonalization with overlap
     ethr =  1.42E-04,  avg # of iterations =  2.0

     negative rho (up, down):  5.075E-06 0.000E+00

     total cpu time spent up to now is        4.9 secs

     total energy              =     -16.15220911 Ry
     Harris-Foulkes estimate   =     -16.15421688 Ry
     estimated scf accuracy    <       0.00459333 Ry

     iteration #  5     ecut=   110.00 Ry     beta=0.50
     Davidson diagonalization with overlap
     ethr =  5.74E-05,  avg # of iterations =  1.0

     negative rho (up, down):  1.503E-06 0.000E+00

     total cpu time spent up to now is        5.4 secs

     total energy              =     -16.15241516 Ry
     Harris-Foulkes estimate   =     -16.15260156 Ry
     estimated scf accuracy    <       0.00033084 Ry

     iteration #  6     ecut=   110.00 Ry     beta=0.50
     Davidson diagonalization with overlap
     ethr =  4.14E-06,  avg # of iterations =  3.0

     negative rho (up, down):  3.251E-08 0.000E+00

     total cpu time spent up to now is        6.1 secs

     total energy              =     -16.15261352 Ry
     Harris-Foulkes estimate   =     -16.15266541 Ry
     estimated scf accuracy    <       0.00011392 Ry

     iteration #  7     ecut=   110.00 Ry     beta=0.50
     Davidson diagonalization with overlap
     ethr =  1.42E-06,  avg # of iterations =  2.0

     total cpu time spent up to now is        6.7 secs

     total energy              =     -16.15263108 Ry
     Harris-Foulkes estimate   =     -16.15263135 Ry
     estimated scf accuracy    <       0.00000184 Ry

     iteration #  8     ecut=   110.00 Ry     beta=0.50
     Davidson diagonalization with overlap
     ethr =  2.30E-08,  avg # of iterations =  1.0

     total cpu time spent up to now is        7.1 secs

     total energy              =     -16.15263081 Ry
     Harris-Foulkes estimate   =     -16.15263119 Ry
     estimated scf accuracy    <       0.00000129 Ry

     iteration #  9     ecut=   110.00 Ry     beta=0.50
     Davidson diagonalization with overlap
     ethr =  1.62E-08,  avg # of iterations =  1.0

     total cpu time spent up to now is        7.4 secs

     End of self-consistent calculation

          k = 0.0000 0.0000 0.0000 ( 65842 PWs)   bands (ev):

   -16.9208  -9.4539  -9.3706  -9.0586

     highest occupied level (ev):    -9.0586

!    total energy              =     -16.15263064 Ry
     Harris-Foulkes estimate   =     -16.15263088 Ry
     estimated scf accuracy    <       0.00000033 Ry

     The total energy is the sum of the following terms:

     one-electron contribution =     -40.56847121 Ry
     hartree contribution      =      21.11386390 Ry
     xc contribution           =      -6.37343123 Ry
     ewald contribution        =       9.67540790 Ry

     convergence has been achieved in   9 iterations

     Forces acting on atoms (Ry/au):

     atom    1 type  1   force =    -0.00093474   -0.00465340   -0.01776860
     atom    2 type  1   force =    -0.04002887    0.00718380   -0.00748815
     atom    3 type  1   force =    -0.00469967   -0.00779759    0.00643259
     atom    4 type  1   force =     0.00920288    0.00260348    0.01865934
     atom    5 type  2   force =     0.03646040    0.00266372    0.00016483

     Total force =     0.062838     Total SCF correction =     0.000346


     entering subroutine stress ...

          total   stress  (Ry/bohr**3)                   (kbar)     P=    0.64
   0.00000989  -0.00000345   0.00000276          1.45     -0.51      0.41
  -0.00000345  -0.00000360   0.00000183         -0.51     -0.53      0.27
   0.00000276   0.00000183   0.00000675          0.41      0.27      0.99


     init_run     :      2.45s CPU      2.46s WALL (       1 calls)
     electrons    :      4.56s CPU      4.61s WALL (       1 calls)
     forces       :      0.92s CPU      0.92s WALL (       1 calls)
     stress       :      1.12s CPU      1.12s WALL (       1 calls)

     Called by init_run:
     wfcinit      :      0.11s CPU      0.11s WALL (       1 calls)
     potinit      :      0.95s CPU      0.96s WALL (       1 calls)

     Called by electrons:
     c_bands      :      2.06s CPU      2.07s WALL (       9 calls)
     sum_band     :      0.50s CPU      0.51s WALL (       9 calls)
     v_of_rho     :      1.91s CPU      1.94s WALL (      10 calls)
     mix_rho      :      0.26s CPU      0.26s WALL (       9 calls)

     Called by c_bands:
     init_us_2    :      0.04s CPU      0.05s WALL (      19 calls)
     regterg      :      2.03s CPU      2.04s WALL (       9 calls)

     Called by sum_band:

     Called by *egterg:
     h_psi        :      2.07s CPU      2.09s WALL (      25 calls)
     g_psi        :      0.01s CPU      0.01s WALL (      15 calls)
     rdiaghg      :      0.00s CPU      0.00s WALL (      24 calls)

     Called by h_psi:
     add_vuspsi   :      0.00s CPU      0.00s WALL (      25 calls)

     General routines
     calbec       :      0.76s CPU      0.76s WALL (      30 calls)
     fft          :      1.85s CPU      1.89s WALL (     117 calls)
     fftw         :      1.35s CPU      1.37s WALL (     122 calls)

     Parallel routines
     fft_scatter  :      1.39s CPU      1.43s WALL (     239 calls)

     PWSCF        :     9.41s CPU         9.51s WALL


   This run was terminated on:  19: 3:17  22Sep2019            

=------------------------------------------------------------------------------=
   JOB DONE.
=------------------------------------------------------------------------------=
