-6.220629811286926270e-01 2.713249921798706055e-01 -6.771159768104553223e-01 -7.665979862213134766e-01 -8.675379753112792969e-01 4.744420051574707031e-01 -2.456820011138916016e-01 7.956979870796203613e-01 1.907487034797668457e+00 -5.437759757041931152e-01 -4.842250049114227295e-01 5.382609963417053223e-01 -9.020839929580688477e-01 -1.432381987571716309e+00 -1.502099990844726562e+00 -1.404533982276916504e+00 -1.247001051902770996e+00 -1.093679964542388916e-01 1.329500041902065277e-02 2.865119874477386475e-01 5.676599740982055664e-01 6.400730013847351074e-01 2.867439985275268555e-01 2.645847082138061523e+00 1.871040016412734985e-01 1.064239963889122009e-01 -9.059599786996841431e-02 2.101722955703735352e+00 -6.733189821243286133e-01 -1.396415948867797852e+00 -3.966889977455139160e-01 1.239233970642089844e+00 -1.198565006256103516e+00 2.644802093505859375e+00 -6.826040148735046387e-01 8.929349780082702637e-01 1.020251989364624023e+00 -1.438323020935058594e+00 2.863099984824657440e-02 -1.283277034759521484e+00 4.525260031223297119e-01 5.383480191230773926e-01 -1.262788057327270508e+00 5.295670032501220703e-01 -7.640429735183715820e-01 6.369069814682006836e-01 -3.502869904041290283e-01 3.016189932823181152e-01 4.912869930267333984e-01 -8.349599689245223999e-02 1.950909942388534546e-01 1.427229940891265869e-01 -9.624899923801422119e-02 5.168960094451904297e-01 1.283989995718002319e-01 1.693640053272247314e-01 -9.646009802818298340e-01 5.169680118560791016e-01 6.254559755325317383e-01 5.000069737434387207e-01 9.216000325977802277e-03 -6.620939970016479492e-01 -1.257557034492492676e+00 2.674539983272552490e-01 -3.022809922695159912e-01 -7.717090249061584473e-01 4.211919903755187988e-01 7.939580082893371582e-01 -2.967770099639892578e-01 7.380700111389160156e-02 -4.066410064697265625e-01 -2.907029986381530762e-01 -4.539200067520141602e-01 6.589999794960021973e-01 5.831570029258728027e-01 1.278208017349243164e+00 7.398710250854492188e-01 1.041246056556701660e+00 1.083480000495910645e+00 3.750000149011611938e-02 3.715899959206581116e-02 3.547790050506591797e-01 1.142138004302978516e+00 1.164020001888275146e-01 -1.102400012314319611e-02 -1.544149965047836304e-01 -3.024330139160156250e-01 -1.013999991118907928e-02 -1.362760066986083984e-01 -2.589749991893768311e-01 -1.667834043502807617e+00 2.894020080566406250e-01 -2.119709968566894531e+00 8.615310192108154297e-01 -5.335490107536315918e-01 -4.131779968738555908e-01 -1.829929947853088379e-01 2.709319889545440674e-01 4.037300124764442444e-02 6.318999920040369034e-03 -3.702729940414428711e-01 8.795899897813796997e-02 -1.000893950462341309e+00 -6.313790082931518555e-01 2.726230025291442871e-01 -1.015931010246276855e+00 1.285714983940124512e+00 1.092684984207153320e+00 -3.299799859523773193e-01 -7.214040160179138184e-01 2.289009988307952881e-01 7.777209877967834473e-01 -3.065600097179412842e-01 7.996969819068908691e-01 -1.869220972061157227e+00 7.505099773406982422e-01 3.104290068149566650e-01 -7.822160124778747559e-01 -1.091729998588562012e-01 -1.176517963409423828e+00 -4.723099991679191589e-02 1.570454001426696777e+00 -1.445200014859437943e-02 -9.882289767265319824e-01 -8.675900101661682129e-02 1.489499956369400024e-02 -6.370899826288223267e-02 9.502000175416469574e-03 2.169180065393447876e-01 1.617339015007019043e+00 -4.191769957542419434e-01 -8.592190146446228027e-01 1.317030042409896851e-01 -5.202010273933410645e-01 3.770419955253601074e-01 1.148638010025024414e+00 -1.490399986505508423e-02 3.870080113410949707e-01 -1.508000027388334274e-02 4.045199975371360779e-02 -2.540699951350688934e-02 -6.890249848365783691e-01 3.782239854335784912e-01 -2.242739945650100708e-01
2.957650125026702881e-01 8.680890202522277832e-01 3.951900079846382141e-02 1.020980030298233032e-01 -1.684445977210998535e+00 -5.921390056610107422e-01 1.121599972248077393e-02 7.624000310897827148e-02 1.853259950876235962e-01 -6.570640206336975098e-01 5.787310004234313965e-01 4.986540079116821289e-01 2.016763925552368164e+00 -3.784799948334693909e-02 1.100054979324340820e+00 -6.836749911308288574e-01 -8.771709799766540527e-01 7.027770280838012695e-01 1.020146012306213379e+00 -7.626900076866149902e-01 -1.131590962409973145e+00 -3.421069979667663574e-01 1.336253046989440918e+00 9.164429903030395508e-01 -3.750059902667999268e-01 1.121358036994934082e+00 -5.702000111341476440e-02 5.178210139274597168e-01 5.430539846420288086e-01 -8.213679790496826172e-01 -1.239884018898010254e+00 5.812829732894897461e-01 -5.112190246582031250e-01 -7.146940231323242188e-01 -1.395933032035827637e+00 -7.452509999275207520e-01 -3.859280049800872803e-01 2.270590066909790039e-01 -1.157683968544006348e+00 4.245940148830413818e-01 -9.010700136423110962e-02 6.652200222015380859e-02 -2.937430143356323242e-01 6.583030223846435547e-01 1.455720067024230957e-01 -7.323960065841674805e-01 4.951260089874267578e-01 -3.659909963607788086e-01 -2.364199981093406677e-02 -5.225920081138610840e-01 -2.906329929828643799e-01 -3.133839964866638184e-01 -2.949469983577728271e-01 1.557659953832626343e-01 4.039869904518127441e-01 -3.587029874324798584e-01 -6.014500185847282410e-02 -4.000200033187866211e-01 1.967602014541625977e+00 6.303870081901550293e-01 -8.147999644279479980e-03 2.764599956572055817e-02 -2.432959973812103271e-01 5.531200021505355835e-02 -2.571000019088387489e-03 8.951900154352188110e-02 4.209879934787750244e-01 -6.506540179252624512e-01 -3.969400003552436829e-02 5.878509879112243652e-01 -1.754029989242553711e-01 -4.352560043334960938e-01 8.838369846343994141e-01 -4.823600053787231445e-01 -1.662050038576126099e-01 -2.893112897872924805e+00 5.256999731063842773e-01 -9.405540227890014648e-01 2.251109927892684937e-01 8.543620109558105469e-01 -9.657430052757263184e-01 3.787119984626770020e-01 -8.383999764919281006e-02 1.484470069408416748e-01 -2.759430110454559326e-01 -2.485300041735172272e-02 3.699890077114105225e-01 -8.294550180435180664e-01 8.251609802246093750e-01 6.881430149078369141e-01 -2.836849987506866455e-01 2.633680105209350586e-01 -2.204650044441223145e-01 6.230750083923339844e-01 -1.599045991897583008e+00 -6.811890006065368652e-01 5.475410223007202148e-01 -7.572249770164489746e-01 2.578800022602081299e-01 -1.619469970464706421e-01 -3.455060124397277832e-01 -2.142249941825866699e-01 5.988159775733947754e-01 2.741290032863616943e-01 3.977630138397216797e-01 -1.036857008934020996e+00 -8.202279806137084961e-01 6.317399740219116211e-01 8.373079895973205566e-01 -1.132302045822143555e+00 7.549340128898620605e-01 4.154810011386871338e-01 5.538849830627441406e-01 -2.717970013618469238e-01 -5.312599986791610718e-02 -7.522500306367874146e-02 -1.103660017251968384e-01 7.943220138549804688e-01 1.474109053611755371e+00 9.460330009460449219e-01 3.773460090160369873e-01 -1.132799964398145676e-02 -1.184815049171447754e+00 -1.611109972000122070e-01 -5.557100102305412292e-02 2.358740091323852539e+00 -1.936250030994415283e-01 9.812299907207489014e-02 2.290849983692169189e-01 -3.353550136089324951e-01 -1.755799911916255951e-02 -2.619799971580505371e-01 -9.958100318908691406e-02 7.475200295448303223e-02 -9.943000040948390961e-03 3.940669894218444824e-01 -7.144790291786193848e-01 -1.975989937782287598e-01 2.815909981727600098e-01 -4.275610148906707764e-01 -1.843200065195560455e-02 2.797420024871826172e-01 -2.418499998748302460e-02 3.813070058822631836e-01
-1.038053035736083984e+00 -6.438750028610229492e-01 6.207099929451942444e-02 -2.173389911651611328e+00 -2.413728952407836914e+00 -3.582220077514648438e-01 6.331200003623962402e-01 3.952890038490295410e-01 9.478759765625000000e-01 8.452799916267395020e-02 -4.747120141983032227e-01 2.261810004711151123e-01 -1.141384959220886230e+00 5.862640142440795898e-01 3.190239965915679932e-01 4.305599927902221680e-01 -2.828999981284141541e-02 2.288590073585510254e-01 2.219000086188316345e-02 2.709099948406219482e-01 -9.446349740028381348e-01 1.296416997909545898e+00 3.684119880199432373e-01 -2.593065023422241211e+00 -2.035239934921264648e-01 -1.472676038742065430e+00 -1.056666016578674316e+00 8.355630040168762207e-01 -1.231863021850585938e+00 -8.500000089406967163e-02 3.296679854393005371e-01 8.733399957418441772e-02 7.379399985074996948e-02 -8.597790002822875977e-01 -1.782904028892517090e+00 1.017900943756103516e+00 6.774200201034545898e-01 1.406590044498443604e-01 -7.432529926300048828e-01 8.182500302791595459e-02 2.508310079574584961e-01 -5.629400163888931274e-02 8.041100203990936279e-02 -1.034451007843017578e+00 9.658120274543762207e-01 1.415225028991699219e+00 1.333281040191650391e+00 -1.715039014816284180e+00 4.560790061950683594e-01 6.409260034561157227e-01 7.222300022840499878e-02 4.591810107231140137e-01 -8.856000378727912903e-03 -1.417250037193298340e-01 1.470726013183593750e+00 1.875964045524597168e+00 1.400377988815307617e+00 1.214125037193298340e+00 3.613049983978271484e-01 -9.742239713668823242e-01 -1.100545048713684082e+00 2.502990067005157471e-01 -1.924909949302673340e-01 2.560600079596042633e-02 -5.556240081787109375e-01 -8.683890104293823242e-01 1.746149957180023193e-01 3.218660056591033936e-01 2.247879952192306519e-01 -2.314870059490203857e-01 2.197110056877136230e-01 -5.341339707374572754e-01 1.091833949089050293e+00 -4.144090116024017334e-01 -1.499959975481033325e-01 -7.503899931907653809e-02 -8.340899646282196045e-02 -5.846099928021430969e-02 -4.313040077686309814e-01 1.934980005025863647e-01 -1.720200031995773315e-01 -3.169999981764703989e-04 -1.607960015535354614e-01 -6.153500080108642578e-02 -6.864699721336364746e-01 -4.120549857616424561e-01 6.695910096168518066e-01 4.112389981746673584e-01 2.243169993162155151e-01 1.357470005750656128e-01 -2.511320114135742188e-01 3.187170028686523438e-01 3.820800036191940308e-02 -1.545657992362976074e+00 -4.047099947929382324e-01 2.664587974548339844e+00 1.142446994781494141e+00 2.952887058258056641e+00 1.118451952934265137e+00 -9.890840053558349609e-01 -1.519551992416381836e+00 -3.862300142645835876e-02 -2.684830129146575928e-01 5.924509763717651367e-01 3.311850130558013916e-01 -4.406250119209289551e-01 5.366590023040771484e-01 -3.581190109252929688e-01 1.805250048637390137e-01 -1.799090057611465454e-01 2.174610048532485962e-01 -2.691130042076110840e-01 -4.964000079780817032e-03 -1.537899971008300781e-01 -5.034900084137916565e-02 6.518849730491638184e-01 -8.624599874019622803e-02 9.487760066986083984e-01 1.069048047065734863e+00 -9.287610054016113281e-01 2.665719985961914062e-01 2.230049967765808105e-01 -3.349359929561614990e-01 -5.130779743194580078e-01 -4.322000145912170410e-01 1.139912962913513184e+00 9.264619946479797363e-01 -3.610770106315612793e-01 6.441890001296997070e-01 -1.001077055931091309e+00 1.128059998154640198e-01 -5.754089951515197754e-01 3.956640064716339111e-01 5.729190111160278320e-01 -4.067539870738983154e-01 -3.787370026111602783e-01 5.133810043334960938e-01 -5.103729963302612305e-01 -1.494292020797729492e+00 -1.441056966781616211e+00 1.819102048873901367e+00 9.214200079441070557e-02 -3.501999890431761742e-03 -2.191819995641708374e-01
-3.195570111274719238e-01 -4.662309885025024414e-01 1.187013983726501465e+00 3.922489881515502930e-01 7.299099862575531006e-02 -1.930004954338073730e+00 6.832559704780578613e-01 -5.959400162100791931e-02 9.392800182104110718e-02 1.216000020503997803e-01 -3.067219853401184082e-01 3.356490135192871094e-01 4.261620044708251953e-01 -4.466550052165985107e-01 -1.563059985637664795e-01 -8.417200297117233276e-02 -1.930608987808227539e+00 -1.945958971977233887e+00 -9.112780094146728516e-01 -1.380770057439804077e-01 9.823939800262451172e-01 -2.818489968776702881e-01 3.353190124034881592e-01 -9.627630114555358887e-01 5.176780223846435547e-01 1.448460072278976440e-01 2.276539951562881470e-01 -1.524769961833953857e-01 1.564331054687500000e+00 -1.899801015853881836e+00 1.312378048896789551e+00 -9.328000247478485107e-02 2.395793914794921875e+00 5.765699744224548340e-01 -1.762073040008544922e+00 -9.130570292472839355e-01 -1.733960062265396118e-01 -1.767992019653320312e+00 -1.438022971153259277e+00 -2.166579961776733398e-01 7.010830044746398926e-01 -1.566609025001525879e+00 4.257290065288543701e-01 -7.755169868469238281e-01 3.212000057101249695e-02 -3.147439002990722656e+00 -4.249730110168457031e-01 7.805579900741577148e-01 -7.628430128097534180e-01 -4.087049961090087891e-01 -3.265500068664550781e-02 1.200204968452453613e+00 9.023129940032958984e-01 -1.280128955841064453e+00 -2.306209951639175415e-01 -6.168389916419982910e-01 1.348662972450256348e+00 -1.212759986519813538e-01 5.170540213584899902e-01 6.120010018348693848e-01 8.787729740142822266e-01 2.715919911861419678e-01 -4.035999998450279236e-02 -1.565335988998413086e+00 -1.455000042915344238e-01 -7.959699630737304688e-02 -1.920879930257797241e-01 1.822900027036666870e-01 -1.869139969348907471e-01 4.697800055146217346e-02 7.872100174427032471e-02 -1.420329958200454712e-01 -3.385660052299499512e-01 2.301400005817413330e-01 1.106650009751319885e-01 -7.126499712467193604e-02 2.119019925594329834e-01 6.930399686098098755e-02 -5.112429857254028320e-01 1.659830063581466675e-01 1.384541034698486328e+00 5.041729807853698730e-01 1.741657972335815430e+00 5.815250277519226074e-01 3.822800144553184509e-02 8.929900079965591431e-02 -1.813730001449584961e-01 8.826519846916198730e-01 3.786600008606910706e-02 -7.953220009803771973e-01 2.615469992160797119e-01 -1.297124028205871582e+00 8.107299804687500000e-01 1.751299947500228882e-02 1.000784993171691895e+00 1.765460073947906494e-01 -8.294910192489624023e-01 -2.680819928646087646e-01 -1.301130056381225586e-01 2.646189928054809570e-01 1.350270062685012817e-01 -8.883199840784072876e-02 4.352619946002960205e-01 -1.162011027336120605e+00 1.132292985916137695e+00 -1.863909959793090820e-01 -3.707970082759857178e-01 7.619469761848449707e-01 -7.329099774360656738e-01 -8.766220211982727051e-01 -1.425636053085327148e+00 -5.902400016784667969e-01 9.784370064735412598e-01 -9.720140099525451660e-01 -3.579999902285635471e-04 9.507299959659576416e-02 2.077980041503906250e-01 -5.535809993743896484e-01 1.673079013824462891e+00 6.400020122528076172e-01 2.958900034427642822e-01 5.210880041122436523e-01 4.865570068359375000e-01 -1.611209958791732788e-01 1.182813048362731934e+00 1.034592032432556152e+00 -6.152439713478088379e-01 -4.735240042209625244e-01 5.559260249137878418e-01 7.792360186576843262e-01 -2.355519980192184448e-01 9.964249730110168457e-01 -3.675050139427185059e-01 8.840829730033874512e-01 2.239110022783279419e-01 -2.943900041282176971e-02 -1.387780010700225830e-01 -2.808290123939514160e-01 1.320402026176452637e+00 -1.004513025283813477e+00 -7.327880263328552246e-01 1.765246033668518066e+00 1.451995968818664551e+00 1.257999986410140991e-02
7.164729833602905273e-01 4.315629899501800537e-01 9.202039837837219238e-01 -1.454635977745056152e+00 2.494470030069351196e-01 7.747039794921875000e-01 -1.197700977325439453e+00 -1.982250064611434937e-01 -1.386535048484802246e+00 9.754300117492675781e-01 -7.758100330829620361e-02 1.484452962875366211e+00 1.187489986419677734e+00 9.679859876632690430e-01 1.499209046363830566e+00 4.192889928817749023e-01 2.070651054382324219e+00 4.227699935436248779e-01 -2.453510016202926636e-01 -9.394299983978271484e-02 -1.466819941997528076e-01 3.230009973049163818e-01 -2.701030075550079346e-01 -8.445800095796585083e-02 5.483610033988952637e-01 -3.144769966602325439e-01 -2.648380041122436523e+00 1.448735952377319336e+00 -1.483332991600036621e+00 -1.512189030647277832e+00 -1.404700040817260742e+00 1.279799938201904297e-01 -2.954150140285491943e-01 6.692649722099304199e-01 -3.171490132808685303e-01 -7.740309834480285645e-01 -6.612600088119506836e-01 9.151530265808105469e-01 3.074150085449218750e-01 1.823567986488342285e+00 -1.242954969406127930e+00 -1.385151982307434082e+00 1.015647053718566895e+00 2.011915922164916992e+00 4.420480132102966309e-01 2.999440133571624756e-01 7.889999747276306152e-01 -7.169099897146224976e-02 -1.480139940977096558e-01 -5.453119874000549316e-01 -4.577830135822296143e-01 -4.983130097389221191e-01 1.769999973475933075e-02 -4.269010126590728760e-01 1.059854030609130859e+00 3.911510109901428223e-01 3.636839985847473145e-01 4.653159976005554199e-01 -6.164069771766662598e-01 -1.185088992118835449e+00 7.338969707489013672e-01 2.762489914894104004e-01 1.140727996826171875e+00 1.858000010251998901e-01 -3.971600160002708435e-02 4.874440133571624756e-01 2.139999996870756149e-03 -1.501400023698806763e-02 3.356299921870231628e-02 -9.147980213165283203e-01 -1.049830019474029541e-01 -1.591390967369079590e+00 4.265809953212738037e-01 1.919559985399246216e-01 5.090599879622459412e-02 -1.555953979492187500e+00 -1.154405951499938965e+00 -1.650295019149780273e+00 -2.201289981603622437e-01 -7.009639739990234375e-01 -1.051311016082763672e+00 -3.328729867935180664e-01 -1.267892956733703613e+00 9.009090065956115723e-01 4.418190121650695801e-01 2.614020109176635742e-01 2.670480012893676758e-01 -1.881570070981979370e-01 -1.758040040731430054e-01 -1.082639992237091064e-01 1.034360051155090332e+00 9.433709979057312012e-01 -2.018599957227706909e-02 -1.341776967048645020e+00 -7.105749845504760742e-01 1.359840035438537598e-01 1.773770004510879517e-01 1.066071987152099609e+00 8.813009858131408691e-01 -6.171810030937194824e-01 -6.808949708938598633e-01 1.597867012023925781e+00 -1.818979978561401367e-01 1.173313975334167480e+00 1.116690039634704590e+00 -9.705600142478942871e-01 3.142180144786834717e-01 4.046829938888549805e-01 5.042729973793029785e-01 -3.302069902420043945e-01 3.531889915466308594e-01 6.247370243072509766e-01 2.791590094566345215e-01 -1.184469982981681824e-01 -4.674560129642486572e-01 -2.553550004959106445e-01 -2.160860002040863037e-01 -1.242709979414939880e-01 4.338409900665283203e-01 8.527830243110656738e-01 8.420040011405944824e-01 -1.948560029268264771e-01 -4.766799882054328918e-02 -1.478549987077713013e-01 -6.989650130271911621e-01 -3.084529936313629150e-01 -2.352460026741027832e-01 8.808019757270812988e-01 1.486457943916320801e+00 -1.686092972755432129e+00 3.840480148792266846e-01 -7.064899802207946777e-02 -6.898639798164367676e-01 -1.248140037059783936e-01 7.083100080490112305e-02 -4.139569997787475586e-01 -1.757266044616699219e+00 -4.152809977531433105e-01 1.238000020384788513e-01 -4.625129997730255127e-01 -2.026930004358291626e-01 -3.511170148849487305e-01 -3.432700037956237793e-01 1.801580041646957397e-01
2.225383043289184570e+00 -6.202620267868041992e-01 -1.002601027488708496e+00 4.791859984397888184e-01 -3.088800013065338135e-01 2.057512998580932617e+00 2.747980058193206787e-01 3.481459915637969971e-01 -3.443929851055145264e-01 -7.107920050621032715e-01 -1.546897053718566895e+00 1.003587007522583008e+00 -6.175860166549682617e-01 9.507219791412353516e-01 1.395180940628051758e+00 -4.541180133819580078e-01 -1.341626048088073730e+00 -9.002159833908081055e-01 8.479930162429809570e-01 -8.800800144672393799e-02 6.543160080909729004e-01 4.596920013427734375e-01 7.718880176544189453e-01 4.465309977531433105e-01 -5.497360229492187500e-01 1.081241965293884277e+00 -6.733909845352172852e-01 -1.228626012802124023e+00 -6.427140235900878906e-01 -1.544049978256225586e-01 -2.201829999685287476e-01 2.705219984054565430e-01 2.022686958312988281e+00 -9.321700036525726318e-02 -1.569725036621093750e+00 -9.296770095825195312e-01 -3.169009983539581299e-01 1.920220017433166504e+00 4.155110120773315430e-01 4.266990125179290771e-01 -9.177119731903076172e-01 -1.051131963729858398e+00 -1.334879994392395020e-01 -7.046260237693786621e-01 3.616580069065093994e-01 -1.817235946655273438e+00 -1.395303964614868164e+00 1.972659975290298462e-01 -5.200999975204467773e-01 8.972120285034179688e-01 8.750309944152832031e-01 -1.793310999870300293e+00 -3.726919889450073242e-01 1.542090028524398804e-01 -1.074213027954101562e+00 -3.056699968874454498e-02 -7.932639718055725098e-01 5.398489832878112793e-01 3.058159947395324707e-01 -1.207955002784729004e+00 1.714870035648345947e-01 -6.566800177097320557e-02 6.170729994773864746e-01 -4.447079896926879883e-01 -2.691879868507385254e-01 -2.598150074481964111e-01 3.360100090503692627e-01 1.418542981147766113e+00 -4.860199987888336182e-02 6.560829877853393555e-01 -3.680000081658363342e-04 -9.527850151062011719e-01 1.163936972618103027e+00 -1.762694001197814941e+00 -2.491200923919677734e+00 -5.373100042343139648e-01 8.161439895629882812e-01 1.093443989753723145e+00 8.465560078620910645e-01 9.953569769859313965e-01 5.350530147552490234e-01 -4.098930060863494873e-01 3.389680087566375732e-01 3.211059868335723877e-01 -5.344700217247009277e-01 2.753779888153076172e-01 -4.718829989433288574e-01 -3.364289999008178711e-01 -7.531800121068954468e-02 -2.150940001010894775e-01 -1.218980029225349426e-01 8.676800131797790527e-02 -1.016728997230529785e+00 -3.450550138950347900e-01 -8.667510151863098145e-01 5.058280229568481445e-01 3.410829901695251465e-01 -1.064906954765319824e+00 1.699070036411285400e-01 2.385489940643310547e-01 -2.842500060796737671e-02 4.884769916534423828e-01 1.093899965286254883e+00 -1.299179941415786743e-01 4.079050123691558838e-01 2.323849946260452271e-01 7.453029751777648926e-01 -1.338019967079162598e-01 1.405140012502670288e-01 -8.134850263595581055e-01 -2.009835958480834961e+00 9.213300049304962158e-02 5.878279805183410645e-01 -8.410999923944473267e-02 -2.765760123729705811e-01 9.897959828376770020e-01 9.293950200080871582e-01 3.753109872341156006e-01 6.287410259246826172e-01 3.120700083673000336e-02 -3.580500185489654541e-02 2.688339948654174805e-01 3.626160025596618652e-01 3.608889877796173096e-01 -2.179462909698486328e+00 -7.248250246047973633e-01 -4.935489892959594727e-01 5.512599945068359375e-01 7.445089817047119141e-01 3.614600002765655518e-02 3.774189949035644531e-01 3.224810063838958740e-01 4.564160108566284180e-01 1.863100007176399231e-02 1.371890008449554443e-01 -4.287180006504058838e-01 7.154920101165771484e-01 -6.186370253562927246e-01 1.365211009979248047e+00 1.352414011955261230e+00 -3.593559861183166504e-01 3.337070047855377197e-01 8.255500346422195435e-02 1.940259933471679688e-01
6.594999879598617554e-02 -7.586519718170166016e-01 7.285100221633911133e-02 2.725569903850555420e-01 -1.063583016395568848e+00 -9.258649945259094238e-01 -5.704730153083801270e-01 4.962989985942840576e-01 6.295000016689300537e-02 2.031799964606761932e-02 1.116679981350898743e-01 -5.294600129127502441e-02 -6.911510229110717773e-01 -1.460137009620666504e+00 -7.649499922990798950e-02 1.171079993247985840e+00 1.356929987668991089e-01 -1.084836959838867188e+00 3.508149981498718262e-01 9.711419939994812012e-01 -4.754079878330230713e-01 1.848960071802139282e-01 -5.347129702568054199e-01 3.106909990310668945e-01 1.636788964271545410e+00 1.267155051231384277e+00 9.318829774856567383e-01 5.089470148086547852e-01 5.691699981689453125e-01 -1.902837991714477539e+00 -6.093959808349609375e-01 -5.872859954833984375e-01 3.021050095558166504e-01 7.698799669742584229e-02 -2.823930084705352783e-01 1.557810008525848389e-01 -5.207059979438781738e-01 5.107839703559875488e-01 -5.353059768676757812e-01 -9.835249781608581543e-01 -4.995470046997070312e-01 -3.022900037467479706e-02 7.431150078773498535e-01 7.462090253829956055e-01 -1.015135049819946289e+00 -4.372800141572952271e-02 3.230650126934051514e-01 -9.377100318670272827e-02 -1.428930014371871948e-01 8.970399945974349976e-02 -1.644320040941238403e-01 1.596319973468780518e-01 7.589629888534545898e-01 9.825199842453002930e-02 5.295119881629943848e-01 7.497050166130065918e-01 2.665069997310638428e-01 7.475300133228302002e-02 -1.063966989517211914e+00 9.145200252532958984e-02 -1.309899985790252686e-01 -4.868089854717254639e-01 4.207000136375427246e-03 3.655410110950469971e-01 -1.389970034360885620e-01 -2.275059968233108521e-01 -1.542800012975931168e-02 6.744299829006195068e-02 1.610999926924705505e-02 4.614700004458427429e-02 -7.420299947261810303e-02 7.631999906152486801e-03 3.861309885978698730e-01 3.835810124874114990e-01 -1.876849979162216187e-01 1.698340028524398804e-01 9.631760120391845703e-01 6.451470255851745605e-01 -1.521500013768672943e-02 2.862089872360229492e-01 6.031849980354309082e-01 -1.433750987052917480e+00 -3.654040098190307617e-01 5.553190112113952637e-01 -1.452510058879852295e-01 -8.803070187568664551e-01 3.362990021705627441e-01 -2.772609889507293701e-01 -5.376800149679183960e-02 1.197540014982223511e-01 -4.315400123596191406e-01 3.393259942531585693e-01 -1.338499933481216431e-01 3.914029896259307861e-01 2.200960069894790649e-01 -4.864979982376098633e-01 -6.703479886054992676e-01 -3.851659893989562988e-01 -8.796700090169906616e-02 -1.434396982192993164e+00 3.906939923763275146e-01 -1.973170042037963867e-01 -5.913010239601135254e-01 -1.288869976997375488e-01 1.564460039138793945e+00 3.687300160527229309e-02 -3.274849951267242432e-01 2.976639866828918457e-01 6.970760226249694824e-01 1.958439946174621582e-01 -4.556469917297363281e-01 -2.322600036859512329e-02 3.978169858455657959e-01 1.093290001153945923e-01 5.159199982881546021e-02 -1.954399980604648590e-02 5.977000109851360321e-03 -1.288560032844543457e-01 3.095259964466094971e-01 -1.560550034046173096e-01 -1.654599979519844055e-02 -2.023079991340637207e-01 -2.904930114746093750e-01 6.521040201187133789e-01 -2.414370030164718628e-01 8.746730089187622070e-01 6.349530220031738281e-01 4.558570086956024170e-01 1.107000047340989113e-03 4.226300120353698730e-01 6.309999735094606876e-04 3.884100168943405151e-02 -1.593199931085109711e-02 -5.120840072631835938e-01 6.185299754142761230e-01 -7.769989967346191406e-01 -2.336429953575134277e-01 3.743250072002410889e-01 -9.867300093173980713e-02 -4.532609879970550537e-01 7.502099871635437012e-02 1.179490014910697937e-01 1.382599957287311554e-02 4.022699967026710510e-02
5.229399800300598145e-01 -1.611479043960571289e+00 -2.807359993457794189e-01 -2.184730023145675659e-01 -2.357430011034011841e-01 -1.649660021066665649e-01 2.711652994155883789e+00 -1.146414995193481445e+00 5.874959826469421387e-01 -7.257639765739440918e-01 -4.940879940986633301e-01 -4.780949950218200684e-01 9.576000273227691650e-03 2.437263965606689453e+00 8.641970157623291016e-01 1.638223052024841309e+00 1.716119050979614258e+00 8.088989853858947754e-01 -4.839909970760345459e-01 -5.452219843864440918e-01 3.722949922084808350e-01 2.283259928226470947e-01 4.652389883995056152e-01 2.803999930620193481e-03 -3.022170066833496094e-01 5.183339715003967285e-01 9.717580080032348633e-01 -1.580567955970764160e+00 1.652009934186935425e-01 2.160902976989746094e+00 1.155989050865173340e+00 -5.625560283660888672e-01 -2.109809964895248413e-01 1.674879938364028931e-01 9.584619998931884766e-01 1.391473054885864258e+00 -2.354329973459243774e-01 1.486418962478637695e+00 1.059059023857116699e+00 -2.480937957763671875e+00 -1.242341995239257812e+00 -1.089146018028259277e+00 3.354409933090209961e-01 -6.213499903678894043e-01 -8.600799739360809326e-02 -2.255966901779174805e+00 1.980453968048095703e+00 1.107599958777427673e-02 -1.362087965011596680e+00 1.044757008552551270e+00 -1.013736963272094727e+00 7.487220168113708496e-01 6.367670297622680664e-01 1.309520006179809570e+00 5.703759789466857910e-01 2.022210061550140381e-01 6.137099862098693848e-02 -2.860110104084014893e-01 -2.258920073509216309e-01 1.456959992647171021e-01 -1.415259987115859985e-01 -1.166239976882934570e-01 -1.294813990592956543e+00 -2.597424030303955078e+00 1.282533049583435059e+00 6.992849707603454590e-01 3.450509905815124512e-01 7.606080174446105957e-01 1.700630038976669312e-01 5.101469755172729492e-01 3.100000089034438133e-03 3.596549928188323975e-01 6.750779747962951660e-01 -1.737372040748596191e+00 -2.120119929313659668e-01 -6.855990290641784668e-01 -7.054280042648315430e-01 -6.620129942893981934e-01 -7.360399961471557617e-01 -1.997305989265441895e+00 4.425809979438781738e-01 -9.066590070724487305e-01 2.847659885883331299e-01 -1.250810980796813965e+00 8.301479816436767578e-01 6.425999850034713745e-02 -3.701049983501434326e-01 -4.528880119323730469e-01 2.035129964351654053e-01 -9.770599752664566040e-02 -3.165529966354370117e-01 -3.620310127735137939e-01 -3.359580039978027344e-01 6.671400368213653564e-02 -7.651600241661071777e-02 3.236620128154754639e-01 2.464309930801391602e-01 -6.445000320672988892e-02 -5.316479802131652832e-01 -6.399189829826354980e-01 -4.060289859771728516e-01 -5.644540190696716309e-01 2.348500043153762817e-01 -2.780070006847381592e-01 -1.748570054769515991e-01 1.325225949287414551e+00 1.155029982328414917e-01 -1.960646033287048340e+00 -8.660600185394287109e-01 6.801779866218566895e-01 1.517599970102310181e-01 -2.572079896926879883e-01 -6.517899781465530396e-02 3.284399956464767456e-02 3.780460059642791748e-01 5.172709822654724121e-01 1.605339944362640381e-01 -5.333229899406433105e-01 -1.597394943237304688e+00 -1.532313942909240723e+00 -5.539230108261108398e-01 -4.587010145187377930e-01 -5.655720233917236328e-01 8.446999788284301758e-01 -1.101361989974975586e+00 -4.944210052490234375e-01 1.826022028923034668e+00 -2.900330126285552979e-01 -3.708800077438354492e-01 6.764709949493408203e-01 1.503497958183288574e+00 1.465957045555114746e+00 -9.853169918060302734e-01 1.484583973884582520e+00 -1.813630014657974243e-01 1.309221029281616211e+00 -6.297670006752014160e-01 3.992440104484558105e-01 1.165106058120727539e+00 -8.090700209140777588e-02 -5.318300053477287292e-02 1.081946969032287598e+00 -1.858855009078979492e+00 2.429199963808059692e-02