       N       E                     dE             d eps       ncg     rms          rms(c)
DAV:   1     0.152041523046E+03    0.15204E+03   -0.47313E+03    64   0.142E+03
DAV:   2     0.541707884499E+02   -0.97871E+02   -0.96693E+02    96   0.136E+02
DAV:   3    -0.194986316377E+02   -0.73669E+02   -0.71926E+02    88   0.132E+02
DAV:   4    -0.316121354979E+02   -0.12114E+02   -0.12099E+02    60   0.674E+01
DAV:   5    -0.319801344094E+02   -0.36800E+00   -0.36756E+00    64   0.169E+01    0.181E+01
RMM:   6    -0.286062742794E+02    0.33739E+01   -0.12134E+01    64   0.249E+01    0.178E+01
RMM:   7    -0.285519097882E+02    0.54364E-01   -0.12640E+00    76   0.550E+00    0.158E+01
RMM:   8    -0.295343375096E+02   -0.98243E+00   -0.75307E+00    64   0.230E+01    0.119E+01
RMM:   9    -0.283119579641E+02    0.12224E+01   -0.30326E+00    64   0.127E+01    0.401E+00
RMM:  10    -0.283291675874E+02   -0.17210E-01   -0.19254E-01    76   0.246E+00    0.197E+00
RMM:  11    -0.283278606848E+02    0.13069E-02   -0.11200E-02    72   0.510E-01    0.106E+00
RMM:  12    -0.283259270069E+02    0.19337E-02   -0.78481E-02    64   0.163E+00    0.529E-01
RMM:  13    -0.283287734054E+02   -0.28464E-02   -0.51387E-03    72   0.360E-01    0.524E-01
RMM:  14    -0.283389013095E+02   -0.10128E-01   -0.94004E-03    64   0.498E-01    0.626E-01
RMM:  15    -0.283388526615E+02    0.48648E-04   -0.23534E-03    66   0.367E-01    0.264E-01
RMM:  16    -0.283401587482E+02   -0.13061E-02   -0.77218E-03    64   0.577E-01    0.138E-01
RMM:  17    -0.283430092323E+02   -0.28505E-02   -0.80240E-03    70   0.547E-01    0.437E-01
RMM:  18    -0.283429801286E+02    0.29104E-04   -0.20698E-04    64   0.103E-01    0.448E-01
RMM:  19    -0.283422321820E+02    0.74795E-03   -0.18138E-03    60   0.285E-01    0.243E-01
RMM:  20    -0.283420796367E+02    0.15255E-03   -0.47320E-03    64   0.426E-01    0.102E-01
RMM:  21    -0.283422890209E+02   -0.20938E-03   -0.16787E-03    72   0.222E-01    0.281E-01
RMM:  22    -0.283428626271E+02   -0.57361E-03   -0.20878E-03    66   0.288E-01    0.514E-01
RMM:  23    -0.283418323577E+02    0.10303E-02   -0.81521E-04    60   0.202E-01    0.325E-01
RMM:  24    -0.283418825614E+02   -0.50204E-04   -0.60536E-03    64   0.496E-01    0.779E-02
RMM:  25    -0.283424022413E+02   -0.51968E-03   -0.14249E-03    74   0.196E-01    0.207E-01
RMM:  26    -0.283425692309E+02   -0.16699E-03   -0.56426E-05    68   0.429E-02    0.189E-01
RMM:  27    -0.283426246909E+02   -0.55460E-04   -0.21060E-04    60   0.929E-02    0.881E-02
RMM:  28    -0.283427065405E+02   -0.81850E-04   -0.58411E-04    54   0.150E-01    0.136E-02
RMM:  29    -0.283428640695E+02   -0.15753E-03   -0.12899E-04    64   0.580E-02    0.531E-02
RMM:  30    -0.283430119761E+02   -0.14791E-03   -0.12578E-05    64   0.193E-02    0.611E-02
RMM:  31    -0.283431130620E+02   -0.10109E-03   -0.65617E-05    58   0.524E-02    0.230E-02
RMM:  32    -0.283431876754E+02   -0.74613E-04   -0.60365E-05    68   0.457E-02    0.129E-02
RMM:  33    -0.283432063338E+02   -0.18658E-04   -0.19314E-06    70   0.884E-03    0.105E-02
RMM:  34    -0.283432514890E+02   -0.45155E-04   -0.13365E-06    58   0.555E-03    0.744E-03
RMM:  35    -0.283432645061E+02   -0.13017E-04   -0.82616E-07    62   0.489E-03    0.692E-03
RMM:  36    -0.283432710967E+02   -0.65906E-05   -0.11025E-06    64   0.646E-03    0.104E-03
RMM:  37    -0.283432747892E+02   -0.36925E-05   -0.13577E-07    58   0.184E-03    0.493E-04
RMM:  38    -0.283432765536E+02   -0.17645E-05   -0.46963E-08    52   0.152E-03    0.963E-04
RMM:  39    -0.283432776588E+02   -0.11051E-05   -0.18388E-08    44   0.824E-04    0.689E-04
RMM:  40    -0.283432780026E+02   -0.34382E-06   -0.13177E-08    46   0.721E-04    0.381E-04
RMM:  41    -0.283432782015E+02   -0.19891E-06   -0.19447E-08    50   0.850E-04    0.169E-04
RMM:  42    -0.283432783751E+02   -0.17364E-06   -0.14035E-08    40   0.754E-04    0.422E-04
RMM:  43    -0.283432784617E+02   -0.86575E-07   -0.52029E-09    36   0.421E-04    0.338E-04
RMM:  44    -0.283432784862E+02   -0.24433E-07   -0.19312E-09    42   0.264E-04    0.309E-04
RMM:  45    -0.283432785442E+02   -0.58063E-07   -0.29745E-09    40   0.386E-04    0.866E-05
RMM:  46    -0.283432785731E+02   -0.28900E-07   -0.27722E-09    38   0.351E-04    0.867E-05
RMM:  47    -0.283432785759E+02   -0.27876E-08   -0.19002E-09    42   0.295E-04
   1 F= -.28343279E+02 E0= -.28343279E+02  d E =-.158514E-15
