
     Program PWSCF v.5.4.0 starts on 22Sep2019 at 18:34:23 

     This program is part of the open-source Quantum ESPRESSO suite
     for quantum simulation of materials; please cite
         "P. Giannozzi et al., J. Phys.:Condens. Matter 21 395502 (2009);
          URL http://www.quantum-espresso.org", 
     in publications or presentations arising from this work. More details at
     http://www.quantum-espresso.org/quote

           HOST :    @host@
           ARCH :    
             CC :    cc
            CPP :    cpp
            F90 :    mpif90
            F77 :    gfortran
         DFLAGS :    -D__GFORTRAN -D__STD_F95 -D__FFTW3 -D__MPI -D__PARA
      BLAS LIBS :    -lopenblas
    LAPACK LIBS :    -lopenblas
       FFT LIBS :    -lfftw3
      MASS LIBS :    

     Parallel version (MPI), running on    28 processors
     R & G space division:  proc/nbgrp/npool/nimage =      28
     Waiting for input...
     Reading input from standard input
Warning: card &IONS ignored
Warning: card / ignored
Warning: card &CELL ignored
Warning: card / ignored

     Current dimensions of program PWSCF are:
     Max number of different atomic species (ntypx) = 10
     Max number of k-points (npk) =  40000
     Max angular momentum in pseudopotentials (lmaxx) =  3

     IMPORTANT: XC functional enforced from input :
     Exchange-correlation      = PBE ( 1  4  3  4 0 0)
     Any further DFT definition will be discarded
     Please, verify this is what you really want


     gamma-point specific algorithms are used

     Subspace diagonalization in iterative solution of the eigenvalue problem:
     a serial algorithm will be used


     Parallelization info
     --------------------
     sticks:   dense  smooth     PW     G-vecs:    dense   smooth      PW
     Min         445     445    110                37558    37558    4694
     Max         448     448    112                37564    37564    4708
     Sum       12517   12517   3125              1051747  1051747  131683
     Tot        6259    6259   1563



     bravais-lattice index     =            1
     lattice parameter (alat)  =      18.8973  a.u.
     unit-cell volume          =    6748.3346 (a.u.)^3
     number of atoms/cell      =            5
     number of atomic types    =            2
     number of electrons       =         8.00
     number of Kohn-Sham states=            4
     kinetic-energy cutoff     =     110.0000  Ry
     charge density cutoff     =     440.0000  Ry
     convergence threshold     =      1.0E-06
     mixing beta               =       0.5000
     number of iterations used =            8  plain     mixing
     Exchange-correlation      = PBE ( 1  4  3  4 0 0)

     celldm(1)=  18.897261  celldm(2)=   0.000000  celldm(3)=   0.000000
     celldm(4)=   0.000000  celldm(5)=   0.000000  celldm(6)=   0.000000

     crystal axes: (cart. coord. in units of alat)
               a(1) = (   1.000000   0.000000   0.000000 )  
               a(2) = (   0.000000   1.000000   0.000000 )  
               a(3) = (   0.000000   0.000000   1.000000 )  

     reciprocal axes: (cart. coord. in units 2 pi/alat)
               b(1) = (  1.000000  0.000000  0.000000 )  
               b(2) = (  0.000000  1.000000  0.000000 )  
               b(3) = (  0.000000  0.000000  1.000000 )  


     PseudoPot. # 1 for  H read from file:
     ../pseudo/H.tm.pbe.UPF
     MD5 check sum: 4b614d66af87240b7a5107bfa527a767
     Pseudo is Norm-conserving, Zval =  1.0
     Generated using "atomic" code by A. Dal Corso  v.5.2.0
     Using radial grid of  929 points,  0 beta functions with: 

     PseudoPot. # 2 for  C read from file:
     ../pseudo/C.tm.pbe.UPF
     MD5 check sum: a4f27fcb9b24331b00ace8e732a7e062
     Pseudo is Norm-conserving, Zval =  4.0
     Generated using "atomic" code by A. Dal Corso  v.5.2.0
     Using radial grid of 1073 points,  1 beta functions with: 
                l(1) =   1

     atomic species   valence    mass     pseudopotential
        H              1.00     1.00000      H( 1.00)
        C              4.00     1.00000      C( 1.00)

     No symmetry found



   Cartesian axes

     site n.     atom                  positions (alat units)
         1           H   tau(   1) = (   0.5439120   0.4231800   0.3692490  )
         2           H   tau(   2) = (   0.3977080   0.4808410   0.4587710  )
         3           H   tau(   3) = (   0.5462450   0.5765380   0.4473190  )
         4           H   tau(   4) = (   0.5452650   0.4248080   0.5441790  )
         5           C   tau(   5) = (   0.5089780   0.4759340   0.4541390  )

     number of k points=     1
                       cart. coord. in units 2pi/alat
        k(    1) = (   0.0000000   0.0000000   0.0000000), wk =   2.0000000

     Dense  grid:   525874 G-vectors     FFT dimensions: ( 128, 128, 128)

     Largest allocated arrays     est. size (Mb)     dimensions
        Kohn-Sham Wavefunctions         0.14 Mb     (    2354,    4)
        NL pseudopotentials             0.11 Mb     (    2354,    3)
        Each V/rho on FFT grid          1.25 Mb     (   81920)
        Each G-vector array             0.14 Mb     (   18782)
        G-vector shells                 0.02 Mb     (    2785)
     Largest temporary arrays     est. size (Mb)     dimensions
        Auxiliary wavefunctions         0.29 Mb     (    2354,   16)
        Each subspace H/S matrix        0.00 Mb     (      16,   16)
        Each <psi_i|beta_j> matrix      0.00 Mb     (       3,    4)
        Arrays for rho mixing          10.00 Mb     (   81920,    8)

     Initial potential from superposition of free atoms
     Check: negative starting charge=   -0.000383

     starting charge    7.99992, renormalised to    8.00000

     negative rho (up, down):  3.829E-04 0.000E+00
     Starting wfc are    8 randomized atomic wfcs

     total cpu time spent up to now is       23.6 secs

     per-process dynamical memory:   430.7 Mb

     Self-consistent Calculation

     iteration #  1     ecut=   110.00 Ry     beta=0.50
     Davidson diagonalization with overlap
     ethr =  1.00E-02,  avg # of iterations =  2.0

     negative rho (up, down):  1.803E-04 0.000E+00

     total cpu time spent up to now is       24.2 secs

     total energy              =     -16.01435534 Ry
     Harris-Foulkes estimate   =     -16.41912850 Ry
     estimated scf accuracy    <       0.71845662 Ry

     iteration #  2     ecut=   110.00 Ry     beta=0.50
     Davidson diagonalization with overlap
     ethr =  8.98E-03,  avg # of iterations =  2.0

     negative rho (up, down):  9.385E-05 0.000E+00

     total cpu time spent up to now is       24.7 secs

     total energy              =     -16.15134356 Ry
     Harris-Foulkes estimate   =     -16.17010047 Ry
     estimated scf accuracy    <       0.04921573 Ry

     iteration #  3     ecut=   110.00 Ry     beta=0.50
     Davidson diagonalization with overlap
     ethr =  6.15E-04,  avg # of iterations =  1.0

     negative rho (up, down):  4.577E-06 0.000E+00

     total cpu time spent up to now is       25.1 secs

     total energy              =     -16.14938428 Ry
     Harris-Foulkes estimate   =     -16.15482926 Ry
     estimated scf accuracy    <       0.01143102 Ry

     iteration #  4     ecut=   110.00 Ry     beta=0.50
     Davidson diagonalization with overlap
     ethr =  1.43E-04,  avg # of iterations =  2.0

     negative rho (up, down):  4.900E-06 0.000E+00

     total cpu time spent up to now is       25.5 secs

     total energy              =     -16.15124343 Ry
     Harris-Foulkes estimate   =     -16.15327929 Ry
     estimated scf accuracy    <       0.00469157 Ry

     iteration #  5     ecut=   110.00 Ry     beta=0.50
     Davidson diagonalization with overlap
     ethr =  5.86E-05,  avg # of iterations =  1.0

     negative rho (up, down):  1.442E-06 0.000E+00

     total cpu time spent up to now is       26.0 secs

     total energy              =     -16.15141428 Ry
     Harris-Foulkes estimate   =     -16.15163615 Ry
     estimated scf accuracy    <       0.00035749 Ry

     iteration #  6     ecut=   110.00 Ry     beta=0.50
     Davidson diagonalization with overlap
     ethr =  4.47E-06,  avg # of iterations =  3.0

     total cpu time spent up to now is       26.6 secs

     total energy              =     -16.15164008 Ry
     Harris-Foulkes estimate   =     -16.15172851 Ry
     estimated scf accuracy    <       0.00021843 Ry

     iteration #  7     ecut=   110.00 Ry     beta=0.50
     Davidson diagonalization with overlap
     ethr =  2.73E-06,  avg # of iterations =  2.0

     total cpu time spent up to now is       27.0 secs

     total energy              =     -16.15165816 Ry
     Harris-Foulkes estimate   =     -16.15166458 Ry
     estimated scf accuracy    <       0.00001274 Ry

     iteration #  8     ecut=   110.00 Ry     beta=0.50
     Davidson diagonalization with overlap
     ethr =  1.59E-07,  avg # of iterations =  2.0

     total cpu time spent up to now is       27.5 secs

     End of self-consistent calculation

          k = 0.0000 0.0000 0.0000 ( 65842 PWs)   bands (ev):

   -16.9097  -9.4386  -9.3947  -9.0310

     highest occupied level (ev):    -9.0310

!    total energy              =     -16.15166151 Ry
     Harris-Foulkes estimate   =     -16.15166172 Ry
     estimated scf accuracy    <       0.00000053 Ry

     The total energy is the sum of the following terms:

     one-electron contribution =     -40.52109956 Ry
     hartree contribution      =      21.09109014 Ry
     xc contribution           =      -6.36968536 Ry
     ewald contribution        =       9.64803328 Ry

     convergence has been achieved in   8 iterations

     Forces acting on atoms (Ry/au):

     atom    1 type  1   force =     0.00687052   -0.02984444   -0.04379282
     atom    2 type  1   force =     0.02162856   -0.00652443   -0.00716199
     atom    3 type  1   force =     0.01271373    0.02669342    0.00738146
     atom    4 type  1   force =     0.00181225    0.00693641    0.00140627
     atom    5 type  2   force =    -0.04302506    0.00273904    0.04216709

     Total force =     0.089644     Total SCF correction =     0.000140


     entering subroutine stress ...

          total   stress  (Ry/bohr**3)                   (kbar)     P=    0.56
  -0.00000633   0.00000260  -0.00000114         -0.93      0.38     -0.17
   0.00000260   0.00000908   0.00000824          0.38      1.34      1.21
  -0.00000114   0.00000824   0.00000876         -0.17      1.21      1.29


     init_run     :      5.93s CPU      5.97s WALL (       1 calls)
     electrons    :      3.76s CPU      3.88s WALL (       1 calls)
     forces       :      0.91s CPU      0.91s WALL (       1 calls)
     stress       :      1.10s CPU      1.10s WALL (       1 calls)

     Called by init_run:
     wfcinit      :      0.19s CPU      0.20s WALL (       1 calls)
     potinit      :      0.97s CPU      0.99s WALL (       1 calls)

     Called by electrons:
     c_bands      :      1.58s CPU      1.60s WALL (       8 calls)
     sum_band     :      0.44s CPU      0.46s WALL (       8 calls)
     v_of_rho     :      1.71s CPU      1.80s WALL (       9 calls)
     mix_rho      :      0.21s CPU      0.21s WALL (       8 calls)

     Called by c_bands:
     init_us_2    :      0.04s CPU      0.04s WALL (      17 calls)
     regterg      :      1.55s CPU      1.57s WALL (       8 calls)

     Called by sum_band:

     Called by *egterg:
     h_psi        :      1.69s CPU      1.71s WALL (      24 calls)
     g_psi        :      0.01s CPU      0.01s WALL (      15 calls)
     rdiaghg      :      0.00s CPU      0.00s WALL (      23 calls)

     Called by h_psi:
     add_vuspsi   :      0.00s CPU      0.00s WALL (      24 calls)

     General routines
     calbec       :      0.58s CPU      0.58s WALL (      29 calls)
     fft          :      1.68s CPU      1.78s WALL (     106 calls)
     fftw         :      1.13s CPU      1.16s WALL (     116 calls)

     Parallel routines
     fft_scatter  :      1.16s CPU      1.24s WALL (     222 calls)

     PWSCF        :    28.95s CPU        29.57s WALL


   This run was terminated on:  18:34:53  22Sep2019            

=------------------------------------------------------------------------------=
   JOB DONE.
=------------------------------------------------------------------------------=
