-7.204030000000000156e-01 2.467591000000000090e+00 -3.080899999999999958e-02 -1.072815000000000074e+00 -2.328895000000000159e+00 1.509899999999999957e-02 -8.091530000000000111e-01 -2.364561000000000135e+00 3.892600000000000227e-02 1.519697000000000076e+00 -1.026669999999999944e-01 -8.129000000000000808e-03 5.473019999999999552e-01 1.164805000000000090e+00 -1.729395999999999933e+00 5.353729999999999878e-01 1.163726999999999956e+00 1.714309000000000083e+00
