-2.176632684743190271e+00 -1.275758223662159851e+00 3.102654186089265353e-02 -1.275758223662159851e+00 -3.738089747097866677e+00 4.033263196642291465e-02 3.102654186089265353e-02 4.033263196642291465e-02 -2.783606964141317253e+00
