8.512989997863769531e+00 6.337090015411376953e+00 9.632670402526855469e+00 4.088600158691406250e+00 3.260299921035766602e+00 1.620140075683593750e+01 2.141860008239746094e+00 7.184160232543945312e+00 1.059619998931884766e+01 1.246560001373291016e+01 9.107199907302856445e-01 1.008090019226074219e+01 2.378449916839599609e+00 1.033700034022331238e-01 1.262510013580322266e+01 2.066930055618286133e+00 4.272049903869628906e+00 1.267749977111816406e+01 7.179580211639404297e+00 8.962820053100585938e+00 5.106080055236816406e+00 3.351130008697509766e+00 1.439169979095458984e+01 1.469849967956542969e+01 1.094810009002685547e+01 1.443780040740966797e+01 4.266049861907958984e+00 1.366609954833984375e+01 2.169820070266723633e+00 7.018799781799316406e-01 9.801850318908691406e+00 1.573824977874755859e+01 6.829140186309814453e+00 4.036439895629882812e+00 7.485559940338134766e+00 2.950510025024414062e+00 1.019830036163330078e+01 1.552320003509521484e+01 1.530640029907226562e+01 1.124860000610351562e+01 1.013589954376220703e+01 1.581719970703125000e+01 3.897670030593872070e+00 1.135999965667724609e+01 9.920700192451477051e-01 4.736629962921142578e+00 7.400889873504638672e+00 1.013910007476806641e+01 5.388150215148925781e+00 5.856430053710937500e+00 1.531079959869384766e+01 7.218669891357421875e+00 7.664070129394531250e+00 1.646540069580078125e+01 1.093060016632080078e+01 1.801349997520446777e+00 2.642799913883209229e-01 8.620909690856933594e+00 4.405859947204589844e+00 7.626510143280029297e+00 1.084949970245361328e+01 9.978670120239257812e+00 1.048929977416992188e+01 6.263020038604736328e+00 8.848939895629882812e+00 1.187040042877197266e+01 7.538599967956542969e-01 1.361149978637695312e+01 1.239890003204345703e+01 1.867470026016235352e+00 1.264029979705810547e+00 2.380549907684326172e+00 1.570740032196044922e+01 1.070530033111572266e+01 1.496710014343261719e+01 3.553380012512207031e+00 1.428540039062500000e+01 4.173449993133544922e+00 1.455830001831054688e+01 1.397609996795654297e+01 1.448810005187988281e+01 1.252960014343261719e+01 6.748310089111328125e+00 1.631719970703125000e+01 1.533950042724609375e+01 8.606679916381835938e+00 1.301529979705810547e+01 4.690099954605102539e-01 1.405300045013427734e+01 1.011000014841556549e-02 1.090530014038085938e+01 3.943589925765991211e+00 1.279619979858398438e+01 6.947569847106933594e+00 2.514499902725219727e+00 1.531639957427978516e+01 1.494709968566894531e+01 1.063099956512451172e+01 8.705900192260742188e+00 2.627000093460083008e+00 1.127950000762939453e+01 1.209869956970214844e+01 3.029619932174682617e+00 4.430250167846679688e+00 7.114789962768554688e+00 8.125300407409667969e+00 9.915539741516113281e+00 9.960220336914062500e+00 4.365200102329254150e-01 1.573509979248046875e+01 8.065299987792968750e+00 7.144080162048339844e+00 8.282139778137207031e+00 8.098050117492675781e+00 1.089010000228881836e+00 5.573480129241943359e+00 8.725879669189453125e+00 9.012699723243713379e-01 1.446689963340759277e+00 1.020380020141601562e+01 3.652889966964721680e+00 1.917930006980895996e+00 6.333350181579589844e+00 1.421389961242675781e+01 1.362479972839355469e+01 2.130549907684326172e+00 9.467300176620483398e-01 1.157079982757568359e+01 6.669350147247314453e+00 8.530730247497558594e+00 9.638970375061035156e+00 6.202700138092041016e-01 9.436059951782226562e+00 3.505219936370849609e+00 2.890680074691772461e+00 2.579220056533813477e+00 1.167479991912841797e+01 1.523499965667724609e+01 5.944799780845642090e-01 3.006880044937133789e+00 5.228350162506103516e+00 1.072140026092529297e+01 1.304139995574951172e+01 1.672030067443847656e+01 8.718219757080078125e+00 6.768990039825439453e+00 4.081019878387451172e+00 2.027679920196533203e+00 1.342360019683837891e+01 8.411899566650390625e+00 1.339130020141601562e+01 1.374810028076171875e+01 5.794740200042724609e+00 8.807600021362304688e+00 1.056250000000000000e+01 3.394079923629760742e+00 5.567940235137939453e+00 1.215759992599487305e+00 2.085510015487670898e+00 3.976049900054931641e+00 8.633469581604003906e+00 7.196979999542236328e+00 1.255819988250732422e+01 1.000549983978271484e+01 8.148619651794433594e+00 1.117840003967285156e+01 7.152999877929687500e+00 4.450779914855957031e+00 3.954750061035156250e+00 4.613749980926513672e+00 2.247240066528320312e+00 1.603500008583068848e+00 9.942979812622070312e+00 4.651209831237792969e+00 1.385890007019042969e+01 2.620179891586303711e+00 5.055300235748291016e+00 8.217989921569824219e+00 1.224610042572021484e+01 1.643190002441406250e+01 1.241030025482177734e+01 1.866850018501281738e+00 7.306610107421875000e+00 6.161960124969482422e+00 1.502700042724609375e+01 1.132339954376220703e+01 4.373169898986816406e+00 4.052309989929199219e+00 1.124230003356933594e+01 7.946119785308837891e+00 1.598070025444030762e+00 8.330880165100097656e+00 1.471409988403320312e+01 1.382560014724731445e+00 1.479409980773925781e+01 1.303579998016357422e+01 8.916029930114746094e+00 1.084959983825683594e+00 8.444729804992675781e+00 5.196249961853027344e+00 1.200720024108886719e+01 1.125279998779296875e+01 5.990230083465576172e+00 1.029160022735595703e+01 3.991060018539428711e+00 1.325430011749267578e+01 1.039060020446777344e+01 6.716660022735595703e+00 1.201519966125488281e+01 1.424139976501464844e+01 3.385689973831176758e+00 7.463180065155029297e+00 1.511060047149658203e+01 7.813630104064941406e+00 4.381659984588623047e+00 5.083509922027587891e+00 1.138729953765869141e+01 9.923839569091796875e+00 3.496000051498413086e+00 5.740759849548339844e+00 1.295110034942626953e+01 5.805349826812744141e+00 1.051280021667480469e+01 9.436900019645690918e-01 1.235560035705566406e+01 1.362160015106201172e+01 1.456519985198974609e+01 8.552009582519531250e+00 1.192290019989013672e+01 1.136629962921142578e+01 5.808599948883056641e+00 1.443019962310791016e+01 1.362740039825439453e+00 1.204380035400390625e+01 1.100899982452392578e+01 1.228950023651123047e+01 1.229109954833984375e+01 7.410170078277587891e+00 1.573180007934570312e+01 1.557530021667480469e+01 1.038599967956542969e+01 5.400919914245605469e+00 1.489789962768554688e+01 2.319599986076354980e-01 1.363669967651367188e+01 4.617720127105712891e+00 3.525800108909606934e-01 7.574669837951660156e+00 4.920279979705810547e+00 5.344089984893798828e+00 7.162700295448303223e-01 8.464260101318359375e+00 1.954530000686645508e+00 7.765200138092041016e+00 8.352100253105163574e-01 6.041979789733886719e+00 1.300860023498535156e+01 1.431609988212585449e+00 1.340050029754638672e+01 4.864880084991455078e+00 1.380210041999816895e+00 1.297659969329833984e+01 7.169219970703125000e+00 1.334479999542236328e+01 8.186550140380859375e+00 1.267630004882812500e+01 8.860870361328125000e+00 1.208959960937500000e+01 7.277649879455566406e+00 7.485630035400390625e+00 1.070919990539550781e+01 8.873849868774414062e+00 1.306820011138916016e+01 1.612390041351318359e+00 1.970409989356994629e+00 1.458199977874755859e+01 1.690019965171813965e+00 4.139339923858642578e+00 3.214329957962036133e+00 5.442299842834472656e+00 9.018429756164550781e+00 1.400460004806518555e+00 1.300139999389648438e+01 1.177490043640136719e+01 1.408139991760253906e+01 1.557880020141601562e+01 1.020250034332275391e+01 1.153110027313232422e+00 5.448709964752197266e+00 3.092799901962280273e+00 4.356470108032226562e+00 1.137769985198974609e+01 4.598309993743896484e+00 8.057069778442382812e+00 1.225139999389648438e+01 4.681260108947753906e+00 3.938309907913208008e+00 5.677690029144287109e+00 1.376860046386718750e+01 8.452440261840820312e+00 1.050440025329589844e+01 1.028169989585876465e+00 2.653110027313232422e+00 1.356820011138916016e+01 5.006569862365722656e+00 1.183160018920898438e+01 9.198089599609375000e+00 6.513919830322265625e+00 1.330669999122619629e+00 6.657810211181640625e+00 3.537349939346313477e+00 1.276210021972656250e+01 1.484130001068115234e+01 6.762400150299072266e+00 7.686620235443115234e+00 3.451440095901489258e+00 1.515499973297119141e+01 1.203999996185302734e+00 4.445439815521240234e+00 9.749050140380859375e+00 1.408329963684082031e+01 1.562919974327087402e+00 6.752789974212646484e+00 1.329279994964599609e+01 1.481729984283447266e+01 1.223559975624084473e+00 2.974319934844970703e+00 8.892470359802246094e+00 1.434010028839111328e+01 1.101350021362304688e+01 9.513250350952148438e+00 1.291650009155273438e+01 6.562920093536376953e+00 9.130370140075683594e+00 3.734469890594482422e+00 4.720000177621841431e-02 8.194060325622558594e+00 7.549270153045654297e+00 1.334519958496093750e+01 4.554100036621093750e+00 1.057289981842041016e+01 5.436970233917236328e+00 2.178699970245361328e+00 1.206849956512451172e+01 3.174259901046752930e+00 7.708139896392822266e+00 1.581150054931640625e+00 1.116530036926269531e+01 6.761900186538696289e-01 9.539710044860839844e+00 1.079899978637695312e+01 1.778600066900253296e-01 6.357960224151611328e+00 2.211859941482543945e+00 1.364600062370300293e-01 3.993959903717041016e+00 1.074240016937255859e+01 7.961999893188476562e+00 1.287310028076171875e+01 4.318970203399658203e+00 3.623630046844482422e+00 1.454609990119934082e+00 1.075539970397949219e+01 5.765190124511718750e+00 1.454580020904541016e+01 1.398139953613281250e+01 5.191410064697265625e+00 5.004769802093505859e+00 8.905099868774414062e+00 1.543579959869384766e+01 1.304699993133544922e+01 9.983209609985351562e+00 2.869920015335083008e+00 6.747809886932373047e+00 5.427090167999267578e+00 1.564000010490417480e+00 4.115999937057495117e-01 5.627669811248779297e+00 7.868929862976074219e+00 1.564630031585693359e+01 2.416470050811767578e+00 1.167609977722167969e+01 1.255300045013427734e+01 2.274549961090087891e+00 8.499640464782714844e+00 5.605609893798828125e+00 8.952130317687988281e+00 4.455790042877197266e+00 4.127980232238769531e+00 1.594279956817626953e+01 2.011749982833862305e+00 7.054220199584960938e+00 1.157909965515136719e+01 1.239770030975341797e+01 1.472769975662231445e+00 9.305589675903320312e+00 9.476730346679687500e+00 6.449470043182373047e+00 9.735480308532714844e+00 3.343750000000000000e+00 3.005680084228515625e+00 1.560229969024658203e+01 1.701719999313354492e+00 8.058659553527832031e+00 1.060019969940185547e+01 1.158969974517822266e+01 7.016199827194213867e-01 1.048740005493164062e+01 2.991060018539428711e+00 7.333999872207641602e-01 1.212080001831054688e+01 1.307060003280639648e+00 3.963269948959350586e+00 1.204409980773925781e+01 6.382530212402343750e+00 9.480870246887207031e+00 5.011290073394775391e+00 3.029700040817260742e+00 1.477159976959228516e+01 1.550809955596923828e+01 2.906059980392456055e+00 1.529059982299804688e+01 1.330080032348632812e+01 2.929270029067993164e+00 4.281839847564697266e+00 1.224110031127929688e+01 7.283090114593505859e+00 8.726900100708007812e+00 6.049779891967773438e+00 4.352109909057617188e+00 1.459179973602294922e+01 1.461999988555908203e+01 1.093299961090087891e+01 1.522949981689453125e+01 3.716379880905151367e+00 1.156210041046142578e+01 6.929029941558837891e+00 1.007540035247802734e+01 9.340609550476074219e+00 2.445400059223175049e-01 5.990059852600097656e+00 3.939850091934204102e+00 6.559090137481689453e+00 2.786580085754394531e+00 1.147999954223632812e+01 1.465470027923583984e+01 5.016079902648925781e+00 1.407989978790283203e+01 1.717800021171569824e+00 1.668819999694824219e+01 9.920590400695800781e+00 1.474279975891113281e+01 6.780910015106201172e+00 3.198100090026855469e+00 7.818689823150634766e+00 2.589879989624023438e+00 9.245570182800292969e+00 1.557040023803710938e+01 1.547229957580566406e+01 1.196280002593994141e+01 1.075389957427978516e+01 1.535509967803955078e+01 3.545020103454589844e+00 1.151760005950927734e+01 8.203999698162078857e-02 5.252810001373291016e+00 7.818610191345214844e+00 1.085659980773925781e+01 1.040149974822998047e+01 1.470049953460693359e+01 1.575290012359619141e+01 1.172340011596679688e+01 9.812629699707031250e+00 1.658930015563964844e+01 4.757979869842529297e+00 1.188430023193359375e+01 8.882799744606018066e-01 3.813329935073852539e+00 7.362830162048339844e+00 1.048180007934570312e+01 5.794419765472412109e+00 5.676060199737548828e+00 1.443290042877197266e+01 7.981880187988281250e+00 7.362830162048339844e+00 1.922200024127960205e-01 1.067640018463134766e+01 1.368109941482543945e+00 1.616679954528808594e+01 8.364430427551269531e+00 3.542840003967285156e+00 7.952370166778564453e+00 6.032219886779785156e+00 6.500390052795410156e+00 1.571339988708496094e+01 6.628570079803466797e+00 8.055310249328613281e+00 4.345799982547760010e-01 1.036089992523193359e+01 2.570990085601806641e+00 3.182899951934814453e-01 8.437720298767089844e+00 4.366240024566650391e+00 6.607049942016601562e+00 9.890769958496093750e+00 9.912969589233398438e+00 1.023980045318603516e+01 6.806879997253417969e+00 9.355489730834960938e+00 1.128289985656738281e+01 3.446999937295913696e-02 1.380869960784912109e+01 1.300800037384033203e+01 8.795099854469299316e-01 1.298159956932067871e+00 2.283890008926391602e+00 1.074730014801025391e+01 9.637060165405273438e+00 1.142150020599365234e+01 6.919919967651367188e+00 8.303660392761230469e+00 1.237320041656494141e+01 1.270480036735534668e+00 1.440149974822998047e+01 1.222259998321533203e+01 2.064340114593505859e+00 2.229320049285888672e+00 2.355180025100708008e+00 6.481400132179260254e-01 1.134780025482177734e+01 1.485599994659423828e+01 4.315489768981933594e+00 1.382129955291748047e+01 4.581930160522460938e+00 1.426760005950927734e+01 1.490079975128173828e+01 1.455350017547607422e+01 1.266049957275390625e+01 1.926049947738647461e+00 5.355700254440307617e-01 1.492010021209716797e+01 1.118249988555908203e+01 1.464640045166015625e+01 3.110610008239746094e+00 1.479749965667724609e+01 4.896019935607910156e+00 1.145149993896484375e+01 8.088470458984375000e+00 1.319410037994384766e+01 1.268640041351318359e+01 7.556119918823242188e+00 1.100699976086616516e-01 1.560200023651123047e+01 9.041000366210937500e+00 1.214739990234375000e+01 1.415799975395202637e+00 1.403110027313232422e+01 2.411099970340728760e-01 1.083390045166015625e+01 4.618370056152343750e+00 1.352799987792968750e+01 5.972280025482177734e+00 2.656359910964965820e+00 1.557159996032714844e+01 1.533730030059814453e+01 9.361120223999023438e+00 1.365470027923583984e+01 1.567720031738281250e+01 1.377659988403320312e+01 7.443799972534179688e-01 1.176790046691894531e+01 4.057610034942626953e+00 1.234640026092529297e+01 6.974679946899414062e+00 2.932430028915405273e+00 1.441300010681152344e+01 1.894440054893493652e+00 6.993370056152343750e+00 5.178400039672851562e+00 1.969040036201477051e+00 1.195919990539550781e+01 1.242930030822753906e+01 2.368240118026733398e+00 4.922959804534912109e+00 7.722149848937988281e+00 7.714950084686279297e+00 9.310210227966308594e+00 9.221830368041992188e+00 1.489089965820312500e+01 1.141759967803955078e+01 9.297309875488281250e+00 3.032550096511840820e+00 1.075549983978271484e+01 1.282540035247802734e+01 4.743949890136718750e+00 1.036880016326904297e+00 7.741250038146972656e+00 7.861780166625976562e+00 1.081690025329589844e+01 9.616299629211425781e+00 1.523470020294189453e+01 1.551150035858154297e+01 8.202269554138183594e+00 7.800920009613037109e+00 7.666530132293701172e+00 8.532380104064941406e+00 1.572499990463256836e+00 6.271570205688476562e+00 9.214460372924804688e+00 3.642399907112121582e-01 2.286689996719360352e+00 1.027309989929199219e+01 5.819000005722045898e-01 6.302599906921386719e-01 8.824410438537597656e+00 6.210750102996826172e+00 8.019359588623046875e+00 8.303449630737304688e+00 2.790899872779846191e-01 5.953179836273193359e+00 8.282210350036621094e+00 1.890419960021972656e+00 1.583549976348876953e+00 1.015349960327148438e+01 2.919140100479125977e+00 1.335260033607482910e+00 6.126450061798095703e+00 1.331739997863769531e+01 1.314480018615722656e+01 2.139420032501220703e+00 6.077200174331665039e-01 1.217819976806640625e+01 5.952889919281005859e+00 7.972750186920166016e+00 8.917989730834960938e+00 2.608700096607208252e-01 3.373620033264160156e+00 2.783449888229370117e+00 6.700550079345703125e+00 1.402910041809082031e+01 1.455420017242431641e+01 2.121589899063110352e+00 1.659350037574768066e+00 1.203899955749511719e+01 7.107379913330078125e+00 9.342539787292480469e+00 9.503100395202636719e+00 5.539000034332275391e-02 9.875260353088378906e+00 2.608500003814697266e+00 2.876179933547973633e+00 2.876379966735839844e+00 1.254609966278076172e+01 1.501900005340576172e+01 8.556799888610839844e-01 3.424659967422485352e+00 6.041530132293701172e+00 1.113280010223388672e+01 1.252169990539550781e+01 1.604120063781738281e+01 9.295889854431152344e+00 4.724359989166259766e+00 1.201420021057128906e+01 3.201669931411743164e+00 1.101990032196044922e+01 1.484049987792968750e+01 1.532349967956542969e+01 2.908390045166015625e+00 5.129509925842285156e+00 1.112119960784912109e+01 1.278750038146972656e+01 7.902200222015380859e-01 8.211150169372558594e+00 7.581160068511962891e+00 4.211359977722167969e+00 1.709290027618408203e+00 1.430329990386962891e+01 8.141659736633300781e+00 1.370069980621337891e+01 1.402659988403320312e+01 6.658510208129882812e+00 8.662599563598632812e+00 1.009510040283203125e+01 2.502830028533935547e+00 8.169119834899902344e+00 6.025519847869873047e+00 4.459090232849121094e+00 2.570600032806396484e+00 1.356169986724853516e+01 9.191240310668945312e+00 1.423400020599365234e+01 1.344970035552978516e+01 5.372039794921875000e+00 6.371180057525634766e+00 1.340620040893554688e+01 2.267750024795532227e+00 5.175829887390136719e+00 1.741960048675537109e+00 2.762969970703125000e+00 3.559750080108642578e+00 7.890830039978027344e+00 6.695010185241699219e+00 1.217240047454833984e+01 1.023840045928955078e+01 8.989729881286621094e+00 1.145300006866455078e+01 8.059769630432128906e+00 4.190489768981933594e+00 9.184220314025878906e+00 3.821979999542236328e+00 1.987490057945251465e+00 4.109819889068603516e+00 8.296649932861328125e+00 8.125659942626953125e+00 1.350150012969970703e+01 1.019670009613037109e+01 8.370079994201660156e+00 1.018439960479736328e+01 7.124179840087890625e+00 4.576799869537353516e+00 3.739310026168823242e+00 4.335569858551025391e+00 1.349480032920837402e+00 1.580129981040954590e+00 1.042329978942871094e+01 5.514379978179931641e+00 1.329380035400390625e+01 3.312330007553100586e+00 4.658269882202148438e+00 9.095820426940917969e+00 1.273190021514892578e+01 1.653070068359375000e+01 3.011310100555419922e+00 4.450280189514160156e+00 2.668809890747070312e+00 1.794299960136413574e+00 1.073649978637695312e+01 3.982820034027099609e+00 1.336760044097900391e+01 2.204180002212524414e+00 5.832190036773681641e+00 8.422349929809570312e+00 1.130669975280761719e+01 6.200000178068876266e-03 3.232330083847045898e+00 5.073589801788330078e+00 6.419250011444091797e+00 6.015180110931396484e+00 1.518270015716552734e+01 1.232250022888183594e+01 4.692399978637695312e+00 4.420020103454589844e+00 1.038090038299560547e+01 6.937489986419677734e+00 1.382329940795898438e+00 8.315369606018066406e+00 1.172949981689453125e+01 1.348760008811950684e+00 7.000030040740966797e+00 6.572070121765136719e+00 1.788100004196166992e-01 1.113739967346191406e+01 5.131460189819335938e+00 3.987519979476928711e+00 1.189089965820312500e+01 8.449319839477539062e+00 8.665300011634826660e-01 7.852809906005859375e+00 1.449740028381347656e+01 1.616420030593872070e+00 1.386480045318603516e+01 1.390069961547851562e+01 9.377140045166015625e+00 1.308750033378601074e+00 8.308819770812988281e+00 3.182960033416748047e+00 1.644199943542480469e+01 1.133440017700195312e+01 5.540880203247070312e+00 9.363550186157226562e+00 1.570730018615722656e+01 1.510499954223632812e+00 1.480039978027343750e+01 1.246850013732910156e+01 9.047490119934082031e+00 1.918259978294372559e+00 8.266980171203613281e+00 5.462810039520263672e+00 1.104710006713867188e+01 1.142860031127929688e+01 1.312569999694824219e+01 3.060549974441528320e+00 3.816060066223144531e+00 1.244699954986572266e+01 1.086170005798339844e+01 7.384230136871337891e+00 1.193949985504150391e+01 1.495149993896484375e+01 8.287509918212890625e+00 9.995679855346679688e+00 4.058279991149902344e+00 8.084670066833496094e+00 3.901760101318359375e+00 4.202189922332763672e+00 4.700900077819824219e+00 1.369130039215087891e+01 1.091810035705566406e+01 6.236350059509277344e+00 1.117360019683837891e+01 1.420310020446777344e+01 2.588999986648559570e+00 7.289790153503417969e+00 1.458189964294433594e+01 6.876900196075439453e+00 4.131859779357910156e+00 5.072430133819580078e+00 1.167980003356933594e+01 1.040380001068115234e+01 4.333889961242675781e+00 5.417819976806640625e+00 1.208450031280517578e+01 5.569900035858154297e+00 1.045180034637451172e+01 5.521399974822998047e-01 1.326500034332275391e+01 1.312880039215087891e+01 1.507159996032714844e+01 9.183449745178222656e+00 1.037030029296875000e+01 1.010249996185302734e+01 3.453130006790161133e+00 6.615880012512207031e+00 1.292840003967285156e+01 5.246920108795166016e+00 1.207709980010986328e+01 2.787139892578125000e+00 7.394589900970458984e+00 1.418260002136230469e+01 1.390670013427734375e+01 9.097140312194824219e+00 1.256669998168945312e+01 1.215040016174316406e+01 5.741270065307617188e+00 1.534220027923583984e+01 1.116919994354248047e+00 1.176980018615722656e+01 1.092450046539306641e+01 1.154129981994628906e+01 1.159080028533935547e+01 7.293849945068359375e+00 1.559689998626708984e+01 1.657189941406250000e+01 1.221240043640136719e+01 1.083880043029785156e+01 6.591720104217529297e+00 1.379710006713867188e+01 1.036280035972595215e+00 1.143939971923828125e+01 1.055230045318603516e+01 1.304759979248046875e+01 1.197869968414306641e+01 7.091969966888427734e+00 9.714499711990356445e-01 1.550669956207275391e+01 9.661890029907226562e+00 6.060369968414306641e+00 1.464099979400634766e+01 2.062599956989288330e-01 1.349730014801025391e+01 3.669889926910400391e+00 5.023000240325927734e-01 8.556090354919433594e+00 4.706649780273437500e+00 5.477910041809082031e+00 1.546179962158203125e+01 8.497369766235351562e+00 1.103139972686767578e+01 5.989349842071533203e+00 1.540079975128173828e+01 6.950700283050537109e-01 1.449520015716552734e+01 4.764239788055419922e+00 1.285649967193603516e+01 5.968719959259033203e+00 1.163600012660026550e-01 1.519509983062744141e+01 1.386999988555908203e+01 1.526640033721923828e+01 2.478420019149780273e+00 7.705570220947265625e+00 1.673399925231933594e+01 6.874340057373046875e+00 1.270259952545166016e+01 9.543799757957458496e-01 1.305679988861083984e+01 4.757569789886474609e+00 2.327719926834106445e+00 1.374240016937255859e+01 7.747660160064697266e+00 1.319410037994384766e+01 1.419360041618347168e+00 8.602800369262695312e+00 8.511499762535095215e-01 1.169839954376220703e+01 5.276909828186035156e+00 7.423180103302001953e+00 1.356499958038330078e+01 3.930910110473632812e+00 1.084079980850219727e+00 1.276889991760253906e+01 7.164619922637939453e+00 1.431929969787597656e+01 8.599410057067871094e+00 1.330980014801025391e+01 9.472430229187011719e+00 1.217660045623779297e+01 8.231650352478027344e+00 7.711249828338623047e+00 1.068570041656494141e+01 1.909119963645935059e+00 1.260000038146972656e+01 1.965240001678466797e+00 1.254469990730285645e+00 1.406809997558593750e+01 7.315499782562255859e+00 1.307110023498535156e+01 8.747909545898437500e+00 1.166079998016357422e+01 7.226089954376220703e+00 6.611460208892822266e+00 1.551840019226074219e+01 1.094209957122802734e+01 7.987299919128417969e+00 1.570109963417053223e+00 2.715009927749633789e+00 1.398910045623779297e+01 1.353819966316223145e+00 3.823060035705566406e+00 4.090199947357177734e+00 4.985509872436523438e+00 8.442999839782714844e+00 1.999570012092590332e+00 1.239239978790283203e+01 1.183740043640136719e+01 1.335980033874511719e+01 1.142000034451484680e-02 1.093330001831054688e+01 1.773460030555725098e+00 1.123160004615783691e+00 4.956459999084472656e+00 2.971410036087036133e+00 4.802810192108154297e+00 9.746439933776855469e+00 1.160689949989318848e+00 1.348950004577636719e+01 1.257779979705810547e+01 1.418130016326904297e+01 1.567780017852783203e+01 1.075829982757568359e+01 3.200800120830535889e-01 4.839379787445068359e+00 3.537830114364624023e+00 3.736829996109008789e+00 1.042290019989013672e+01 4.491630077362060547e+00 7.873189926147460938e+00 1.199020004272460938e+01 5.683199882507324219e+00 4.076529979705810547e+00 5.628650188446044922e+00 1.336909961700439453e+01 7.530379772186279297e+00 4.844349861145019531e+00 2.709949970245361328e+00 5.042049884796142578e+00 3.821899890899658203e+00 1.031439971923828125e+01 4.798860073089599609e+00 1.131900024414062500e+01 4.383689880371093750e+00 3.868340015411376953e+00 4.968780040740966797e+00 1.332450008392333984e+01 8.973139762878417969e+00 4.750380039215087891e+00 8.381599783897399902e-01 1.647629976272583008e+00 1.358510017395019531e+01 5.725749969482421875e+00 1.252089977264404297e+01 9.306280136108398438e+00 5.562530040740966797e+00 1.104349970817565918e+00 7.258570194244384766e+00 4.282879829406738281e+00 1.247649955749511719e+01 1.068060016632080078e+01 1.291170001029968262e+00 1.727349996566772461e+00 1.295930004119873047e+01 5.359069824218750000e+00 1.119099998474121094e+01 9.160349845886230469e+00 6.516870021820068359e+00 2.311820030212402344e+00 6.762989997863769531e+00 2.793839931488037109e+00 1.208559989929199219e+01 1.505119991302490234e+01 7.136310100555419922e+00 6.856910228729248047e+00 3.629410028457641602e+00 1.466160011291503906e+01 2.014470100402832031e+00 4.194600105285644531e+00 8.867750167846679688e+00 1.444139957427978516e+01 1.552579998970031738e+00 5.798699855804443359e+00 1.298869991302490234e+01 1.384720039367675781e+01 6.860970020294189453e+00 7.731699943542480469e+00 2.792759895324707031e+00 8.128000050783157349e-02 1.516610026359558105e+00 5.044410228729248047e+00 9.540280342102050781e+00 1.327750015258789062e+01 7.580599784851074219e-01 7.335000038146972656e+00 1.331470012664794922e+01 1.433390045166015625e+01 1.618749976158142090e+00 2.223109960556030273e+00 9.168390274047851562e+00 1.527810001373291016e+01 1.089990043640136719e+01 9.030599594116210938e+00 1.262390041351318359e+01 7.388289928436279297e+00 1.061799973249435425e-01 7.186480045318603516e+00 4.004439830780029297e+00 1.436240005493164062e+01 1.614390015602111816e+00 3.723829984664916992e+00 7.963910102844238281e+00 1.446370029449462891e+01 1.121640014648437500e+01 1.028639984130859375e+01 1.229660034179687500e+01 6.400080204010009766e+00 9.410550117492675781e+00 4.315919876098632812e+00 1.600819969177246094e+01 8.952540397644042969e+00 8.130149841308593750e+00 1.326920032501220703e+01 4.314469814300537109e+00 9.819990158081054688e+00 6.048089981079101562e+00 2.586730003356933594e+00 1.194600009918212891e+01 2.266890048980712891e+00 8.486880302429199219e+00 1.332839965820312500e+00 1.171899986267089844e+01 8.467969894409179688e+00 6.756760120391845703e+00 1.276910018920898438e+01 9.549900054931640625e+00 6.661400198936462402e-01 2.600330114364624023e+00 2.570009946823120117e+00 1.288129997253417969e+01 3.609849929809570312e+00 8.014699935913085938e+00 1.748499989509582520e+00 1.026410007476806641e+01 1.262099981307983398e+00 1.028349971771240234e+01 1.101449966430664062e+01 7.047200202941894531e-01 6.573410034179687500e+00 1.409430027008056641e+00 1.502369976043701172e+01 4.338389873504638672e+00 1.116429996490478516e+01 8.174489974975585938e+00 1.214500045776367188e+01 3.686439990997314453e+00 1.403899937868118286e-01 9.899120330810546875e+00 1.001980018615722656e+01 1.509949970245361328e+01 5.893360137939453125e+00 1.964079976081848145e+00 3.525499999523162842e-01 4.703750133514404297e+00 1.001459980010986328e+01 8.606800079345703125e+00 1.276650047302246094e+01 5.133530139923095703e+00 3.913579940795898438e+00 2.454370021820068359e+00 1.090450000762939453e+01 6.496630191802978516e+00 1.484990024566650391e+01 1.464859962463378906e+01 5.009910106658935547e+00 5.903190135955810547e+00 9.221529960632324219e+00 4.744200110435485840e-01 1.308360004425048828e+01 9.328940391540527344e+00 4.019919872283935547e+00 1.037989974021911621e+00 9.955739974975585938e+00 5.965789794921875000e+00 1.358409976959228516e+01 1.408349990844726562e+01 4.528900146484375000e+00 4.850170135498046875e+00 8.229840278625488281e+00 2.097699940204620361e-01 1.313420009613037109e+01 1.090590000152587891e+01 1.085289955139160156e+01 9.396300315856933594e+00 1.382880020141601562e+01 9.404600262641906738e-01 4.293699860572814941e-01 6.429629802703857422e+00 7.956719875335693359e+00 1.530319976806640625e+01 3.302489995956420898e+00 4.135129928588867188e+00 6.812759876251220703e+00 1.515659999847412109e+01 3.393300056457519531e+00 6.949150085449218750e+00 4.544129848480224609e+00 1.277439951896667480e+00 1.244819998741149902e+00 5.145689964294433594e+00 6.920370101928710938e+00 2.440200001001358032e-01 2.505270004272460938e+00 1.161800003051757812e+01 1.162779998779296875e+01 2.647619962692260742e+00