-1.882513427734375000e+03
-1.871056884765625000e+03
-1.861396240234375000e+03
-1.871848632812500000e+03
-1.873302368164062500e+03
-1.865107666015625000e+03
-1.878233642578125000e+03
-1.871571166992187500e+03
-1.873613647460937500e+03
-1.871820922851562500e+03
-1.863249023437500000e+03
-1.872942138671875000e+03
-1.871758300781250000e+03
-1.873771728515625000e+03
-1.871911865234375000e+03
-1.872453491210937500e+03
-1.872015502929687500e+03
-1.874937744140625000e+03
-1.873453979492187500e+03
-1.867621215820312500e+03
-1.873247558593750000e+03
-1.876270507812500000e+03
-1.874691528320312500e+03
-1.865042480468750000e+03
-1.872724365234375000e+03
-1.871074340820312500e+03
-1.870431884765625000e+03
