-3.151279985904693604e-01 -3.985339999198913574e-01 -8.193910121917724609e-01 1.341129988431930542e-01 -3.431589901447296143e-01 -8.597899973392486572e-02 2.908100001513957977e-02 4.067890048027038574e-01 8.428559899330139160e-01 -1.762299984693527222e-01 -1.077232956886291504e+00 1.116685986518859863e+00 7.043640017509460449e-01 -1.710180044174194336e-01 8.548899888992309570e-01 -2.302380084991455078e+00 -5.223259925842285156e-01 5.085939764976501465e-01 1.455989003181457520e+00 -6.033539772033691406e-01 -2.440530061721801758e-01 2.211129963397979736e-01 -5.027629733085632324e-01 -7.817739844322204590e-01 -8.896440267562866211e-01 -9.848780035972595215e-01 -9.528089761734008789e-01 -1.964318990707397461e+00 -8.789349794387817383e-01 -6.897299885749816895e-01 -1.916660070419311523e-01 1.282410025596618652e-01 -4.955179989337921143e-01 -2.966729998588562012e-01 1.182953953742980957e+00 1.100221991539001465e+00 1.877200007438659668e-01 9.486110210418701172e-01 -7.384700179100036621e-01 1.103399991989135742e+00 1.671502947807312012e+00 -1.692649006843566895e+00 8.809769749641418457e-01 5.997769832611083984e-01 -9.686269760131835938e-01 4.526999965310096741e-02 -1.104390025138854980e-01 -6.609089970588684082e-01 7.247570157051086426e-01 -1.812009960412979126e-01 -5.595859885215759277e-01 -1.850641012191772461e+00 6.686710119247436523e-01 1.483689993619918823e-01 1.022459983825683594e+00 -9.597480297088623047e-01 -8.291209936141967773e-01 6.826360225677490234e-01 9.374439716339111328e-01 -1.316259980201721191e+00 -5.083580017089843750e-01 -1.191139966249465942e-01 8.412780165672302246e-01 -1.246122956275939941e+00 -9.874020218849182129e-01 1.266787052154541016e+00 2.087009996175765991e-01 -1.943771004676818848e+00 -9.223020076751708984e-01 -4.908039867877960205e-01 7.435029745101928711e-01 -3.210369944572448730e-01 -1.572262048721313477e+00 -7.301930189132690430e-01 1.249670013785362244e-01 -3.937619924545288086e-01 4.621699824929237366e-02 2.466939985752105713e-01 8.474860191345214844e-01 -5.751360058784484863e-01 5.754979848861694336e-01 4.023000132292509079e-03 -7.805830240249633789e-01 -1.289000064134597778e-01 -4.032739996910095215e-01 3.782199919223785400e-01 6.011600047349929810e-02 6.942870020866394043e-01 3.063009977340698242e-01 -1.554615020751953125e+00 -3.653990030288696289e-01 -3.947739899158477783e-01 -4.449470043182373047e-01 -1.487409949302673340e+00 5.586010217666625977e-01 4.839209914207458496e-01 7.431399822235107422e-02 -2.768320143222808838e-01 9.728149771690368652e-01 -5.690730214118957520e-01 4.285719990730285645e-01 -4.585829973220825195e-01 -4.695720076560974121e-01 2.585009932518005371e-01 1.149258971214294434e+00 -1.070289969444274902e+00 2.971800044178962708e-02 -1.213317990303039551e+00 -1.016950011253356934e-01 1.818819940090179443e-01 -3.488520085811614990e-01 5.685599893331527710e-02 8.005400002002716064e-02 -2.406979948282241821e-01 4.158169925212860107e-01 -9.236170053482055664e-01 -2.712810039520263672e-01 -3.416419923305511475e-01 -3.247799873352050781e-01 -3.993929922580718994e-01 2.269350051879882812e+00 5.363759994506835938e-01 3.883459866046905518e-01 -1.193789988756179810e-01 -1.822152972221374512e+00 -2.455170005559921265e-01 -1.180147051811218262e+00 -2.770909965038299561e-01 -8.078510165214538574e-01 1.938480973243713379e+00 7.639300227165222168e-01 -2.224079966545104980e-01 -2.832599878311157227e-01 8.553460240364074707e-01 4.602740108966827393e-01 -5.805879831314086914e-01 -1.932235956192016602e+00 6.317690014839172363e-01 -6.800000119255855680e-05 -5.850719809532165527e-01 -9.257050156593322754e-01 -1.085405945777893066e+00 1.477990984916687012e+00 -1.273144006729125977e+00 -2.377060055732727051e-01 -5.146629810333251953e-01 5.782699957489967346e-02 -5.223330259323120117e-01 -5.837150216102600098e-01 -6.142849922180175781e-01 1.990610063076019287e-01 -8.671889901161193848e-01 -8.770120143890380859e-01 -5.250669717788696289e-01 -1.805925011634826660e+00 -6.804469823837280273e-01 -5.015720129013061523e-01 -1.167173027992248535e+00 -1.585379958152770996e+00 1.794400066137313843e-01 -6.011689901351928711e-01 1.126400947570800781e+00 -1.668529957532882690e-01 -5.741459727287292480e-01 -8.760349750518798828e-01 7.990859746932983398e-01 -6.197499856352806091e-02 8.471500277519226074e-01 -8.258299827575683594e-01 1.531810015439987183e-01 8.450229763984680176e-01 5.544199943542480469e-01 1.124575972557067871e+00 -1.177271962165832520e+00 -6.418550014495849609e-01 -5.513529777526855469e-01 5.350450277328491211e-01 3.605509996414184570e-01 -8.127269744873046875e-01 6.976420283317565918e-01 3.109811067581176758e+00 2.480752944946289062e+00 1.160343050956726074e+00 3.691590130329132080e-01 1.209395051002502441e+00 1.447746038436889648e+00 -1.455270051956176758e-01 -5.959249734878540039e-01 1.150444984436035156e+00 -4.637770056724548340e-01 -3.270120024681091309e-01 -1.170860007405281067e-01 3.431830108165740967e-01 -1.556459963321685791e-01 3.264139890670776367e-01 -5.374649763107299805e-01 8.260489702224731445e-01 1.725304961204528809e+00 -6.262630224227905273e-01 5.177329778671264648e-01 -5.406159758567810059e-01 5.978689789772033691e-01 1.492015957832336426e+00 -1.435835957527160645e+00 5.187720060348510742e-01 8.971350193023681641e-01 -2.168550044298171997e-01 -4.797199964523315430e-01 3.575199842453002930e-02 -7.508909702301025391e-01 3.228209912776947021e-01 1.754822015762329102e+00 1.465878009796142578e+00 8.135920166969299316e-01 -5.613610148429870605e-01 -1.990813016891479492e+00 -4.459739923477172852e-01 3.524459898471832275e-01 2.270330041646957397e-01 1.419000983238220215e+00 1.232262015342712402e+00 -6.852949857711791992e-01 -2.528649866580963135e-01 1.217035055160522461e+00 1.011013984680175781e+00 1.777811050415039062e+00 -1.903978943824768066e+00 -6.835690140724182129e-01 3.953680098056793213e-01 5.579360127449035645e-01 -3.691450059413909912e-01 1.953137040138244629e+00 8.706560134887695312e-01 1.947574019432067871e+00 1.027634978294372559e+00 -2.926059961318969727e+00 -3.575389981269836426e-01 -2.395379990339279175e-01 7.450619935989379883e-01 2.265041112899780273e+00 -1.084048032760620117e+00 1.809309959411621094e+00 2.319249957799911499e-01 1.351480036973953247e-01 1.408790051937103271e-01 1.182072997093200684e+00 -7.119029760360717773e-01 2.051500044763088226e-02 -1.735720038414001465e+00 2.580799907445907593e-02 3.734549880027770996e-01 3.298130035400390625e-01 1.542299985885620117e-02 4.413830041885375977e-01 -4.496229887008666992e-01 1.044860005378723145e+00 -1.337839961051940918e-01 -1.346410065889358521e-01 8.589000254869461060e-02 -2.776600122451782227e-01 9.769610166549682617e-01 -1.411465048789978027e+00 -3.661369979381561279e-01 7.005739808082580566e-01 7.184669971466064453e-01 -8.843119740486145020e-01 -1.217250004410743713e-01 -1.293899957090616226e-02 -3.565720021724700928e-01 1.324020028114318848e-01 1.411041021347045898e+00 -3.456254959106445312e+00 -1.432942032814025879e+00 -3.321360051631927490e-01 5.422919988632202148e-01 2.131999969482421875e+00 -9.423440098762512207e-01 1.491428971290588379e+00 -8.792989850044250488e-01 1.080898046493530273e+00 1.424443960189819336e+00 -1.533193945884704590e+00 3.263579905033111572e-01 -2.553344011306762695e+00 1.793612003326416016e+00 3.088859915733337402e-01 1.359029054641723633e+00 -8.275079727172851562e-01 -2.794359922409057617e-01 -1.337980031967163086e-01 4.194250106811523438e-01 8.491719961166381836e-01 -1.278810054063796997e-01 -4.149369895458221436e-01 -9.995179772377014160e-01 1.628159046173095703e+00 3.072049915790557861e-01 2.502669990062713623e-01 -4.037699997425079346e-01 -8.994160294532775879e-01 -1.710677981376647949e+00 -6.343700289726257324e-01 1.408151984214782715e+00 8.426150083541870117e-01 -3.634110093116760254e-01 1.075343966484069824e+00 1.977210044860839844e-01 -5.754560232162475586e-01 -2.757050096988677979e-01 -9.526690244674682617e-01 -7.880139946937561035e-01 -1.578499935567378998e-02 -1.577666044235229492e+00 -5.046449899673461914e-01 1.614387035369873047e+00 -2.762579917907714844e-01 2.664279937744140625e-01 -5.856879949569702148e-01 1.084848046302795410e+00 4.421890079975128174e-01 -1.739786028861999512e+00 5.102019906044006348e-01 9.450340270996093750e-01 -2.650400064885616302e-02 4.900540113449096680e-01 -6.953600049018859863e-01 -8.099060058593750000e-01 1.558359026908874512e+00 5.670819878578186035e-01 -5.144119858741760254e-01 7.165709733963012695e-01 -5.428100228309631348e-01 -3.173609972000122070e-01 -1.583263039588928223e+00 -2.653839886188507080e-01 -1.971078991889953613e+00 -4.544990062713623047e-01 -1.689967989921569824e+00 -5.544130206108093262e-01 -1.317149043083190918e+00 -1.591122984886169434e+00 -9.672970175743103027e-01 -1.005380004644393921e-01 1.383479982614517212e-01 -8.523409962654113770e-01 -1.101870015263557434e-01 -2.074230015277862549e-01 1.180955052375793457e+00 -7.046470046043395996e-01 3.015469908714294434e-01 -1.021630048751831055e+00 -1.103530004620552063e-01 -4.232620000839233398e-01 7.894979715347290039e-01 -6.986579895019531250e-01 1.336599946022033691e+00 -4.661639928817749023e-01 6.050209999084472656e-01 3.119409978389739990e-01 1.197633981704711914e+00 -1.420309990644454956e-01 1.601199984550476074e+00 2.029200047254562378e-01 1.074918031692504883e+00 2.651520073413848877e-01 1.051332950592041016e+00 8.638129830360412598e-01 -3.905690014362335205e-01 5.388979911804199219e-01 1.909777998924255371e+00 -4.876540005207061768e-01 4.240469932556152344e-01 2.525910139083862305e-01 3.969070017337799072e-01 -1.737674951553344727e+00 -1.018007993698120117e+00 4.667910039424896240e-01 4.352699965238571167e-02 -7.832369804382324219e-01 4.573009908199310303e-01 -4.046700149774551392e-02 2.091999948024749756e-01 -4.668909907341003418e-01 1.230790972709655762e+00 -4.351879954338073730e-01 1.981880068778991699e-01 -1.789750009775161743e-01 -3.372589945793151855e-01 1.421400010585784912e-01 -2.947919964790344238e-01 1.593700051307678223e-01 -7.982980012893676758e-01 1.461640000343322754e-01 -4.215959906578063965e-01 3.225579857826232910e-01 -6.885460019111633301e-01 5.790629982948303223e-01 1.339180022478103638e-01 5.270079970359802246e-01 3.416480123996734619e-01 3.077229857444763184e-01 2.123630046844482422e-01 -2.581210136413574219e-01 6.556329727172851562e-01 -8.017950057983398438e-01 5.571910142898559570e-01 5.483919978141784668e-01 -3.282960057258605957e-01 -4.313319921493530273e-01 -1.046929955482482910e+00 1.575900055468082428e-02 1.414523005485534668e+00 6.779909729957580566e-01 1.359039992094039917e-01 -1.248386979103088379e+00 5.636860132217407227e-01 1.013740003108978271e-01 -1.209800019860267639e-01 5.861120223999023438e-01 1.035910010337829590e+00 -5.290300250053405762e-01 7.045239806175231934e-01 -7.120910286903381348e-01 4.646889865398406982e-01 -1.711010038852691650e-01 -9.749439954757690430e-01 -2.490829974412918091e-01 1.678989976644515991e-01 1.881420016288757324e-01 -2.369990050792694092e-01 -2.724559903144836426e-01 -4.336300119757652283e-02 6.644800305366516113e-02 7.945119738578796387e-01 -5.600150227546691895e-01 -4.421240091323852539e-01 -1.364830970764160156e+00 4.754540026187896729e-01 5.308340191841125488e-01 -5.103080272674560547e-01 6.324300169944763184e-01 3.531590104103088379e-01 -2.232182025909423828e+00 -8.446189761161804199e-01 1.120342969894409180e+00 9.879899770021438599e-02 1.002526044845581055e+00 1.661430001258850098e-01 5.125129818916320801e-01 -8.837799727916717529e-02 -4.451789855957031250e-01 3.842990100383758545e-01 -1.366470009088516235e-01 -3.766080141067504883e-01 3.023760020732879639e-01 -3.845680058002471924e-01 -1.033856987953186035e+00 3.188369870185852051e-01 -2.302699983119964600e-01 -1.410122990608215332e+00 -1.278830051422119141e+00 7.360299825668334961e-01 -6.262540221214294434e-01 -3.675209879875183105e-01 1.318690031766891479e-01 5.739549994468688965e-01 4.134800136089324951e-01 2.216289937496185303e-01 8.560860157012939453e-01 -9.777519702911376953e-01 6.017600297927856445e-01 6.859099864959716797e-01 -4.378620088100433350e-01 5.969009995460510254e-01 -6.628010272979736328e-01 -2.052610069513320923e-01 1.139654040336608887e+00 -4.684349894523620605e-01 -6.475199759006500244e-02 -2.152619957923889160e-01 -3.160330057144165039e-01 3.063799999654293060e-02 4.368430078029632568e-01 1.048781037330627441e+00 -1.562345981597900391e+00 8.184630274772644043e-01 2.705619931221008301e-01 -5.070260167121887207e-01 6.780610084533691406e-01 -4.544529914855957031e-01 -1.336439967155456543e+00 2.821129858493804932e-01 2.055899947881698608e-01 -9.939900040626525879e-02 2.482959926128387451e-01 -4.054880142211914062e-01 -2.990980148315429688e-01 -6.882799863815307617e-01 -8.009300231933593750e-01 1.404479026794433594e+00 -2.349050045013427734e-01 -6.667300313711166382e-02 6.178199872374534607e-02 1.209712028503417969e+00 -1.103279963135719299e-01 2.793430089950561523e-01 -5.409259796142578125e-01 1.090193986892700195e+00 1.103373050689697266e+00 -1.201372981071472168e+00 -6.891819834709167480e-01 4.499509930610656738e-01 7.452909946441650391e-01 2.591600120067596436e-01 -3.426769971847534180e-01 4.659759998321533203e-01 6.748660206794738770e-01 -1.802960038185119629e-01 -1.433960050344467163e-01 1.519010066986083984e-01 2.030199952423572540e-02 3.012230098247528076e-01 6.674960255622863770e-01 1.337450981140136719e+00 1.676660031080245972e-01 6.517600268125534058e-02 -3.590280115604400635e-01 9.242100268602371216e-02 1.847661972045898438e+00 8.083930015563964844e-01 -5.737400054931640625e-02 1.499399989843368530e-01 1.018790006637573242e-01 4.080240130424499512e-01 5.892299860715866089e-02 5.298600196838378906e-01 -2.278000116348266602e-03 1.629042029380798340e+00 6.958190202713012695e-01 3.570809960365295410e-01 -4.942739903926849365e-01 -1.852899938821792603e-01 9.754999540746212006e-03 3.165310025215148926e-01 -2.284400016069412231e-01 -5.489559769630432129e-01 -1.551100015640258789e+00 2.101756095886230469e+00 -6.906599998474121094e-01 1.879799924790859222e-02 -2.901149988174438477e-01 -5.290599912405014038e-02 3.981100022792816162e-02 -2.801699936389923096e-01 1.848610043525695801e-01 -2.526040077209472656e-01 -2.495300024747848511e-02 3.172689974308013916e-01 3.613039851188659668e-01 -4.187119901180267334e-01 -8.749099820852279663e-02 1.025109052658081055e+00 -7.899300009012222290e-02 6.862500309944152832e-02 2.708039879798889160e-01 -2.636559903621673584e-01 9.550099819898605347e-02 -6.766340136528015137e-01 -3.716309964656829834e-01 1.352501988410949707e+00 3.218200057744979858e-02 2.805230021476745605e-01 2.840189933776855469e-01 2.304399944841861725e-02 -1.345809996128082275e-01 -3.403069972991943359e-01 1.010269045829772949e+00 -1.001230031251907349e-01 4.375190138816833496e-01 8.345559835433959961e-01 -5.943639874458312988e-01 1.867379993200302124e-01 2.403039932250976562e-01 -6.382679939270019531e-01 -5.718899965286254883e-01 5.054020285606384277e-01 8.284950256347656250e-01 9.381269812583923340e-01 6.707400083541870117e-02 5.353369712829589844e-01 1.728399991989135742e-01 -2.860549986362457275e-01 3.102560043334960938e-01 2.081399969756603241e-02 2.372180074453353882e-01 -5.340390205383300781e-01 -4.806699976325035095e-02 6.106669902801513672e-01 -3.309459984302520752e-01 4.004229903221130371e-01 -2.564840018749237061e-01 -4.011029899120330811e-01 -1.697340011596679688e-01 -9.655690193176269531e-01 -3.903389871120452881e-01 -6.223199889063835144e-02 -3.079459965229034424e-01 2.463289946317672729e-01 4.295609891414642334e-01 1.026597023010253906e+00 1.597270071506500244e-01 -2.301999926567077637e-02 3.486050069332122803e-01 1.151579990983009338e-01 2.586359977722167969e-01 9.461290240287780762e-01 -1.359660029411315918e-01 9.064199775457382202e-02 9.949000179767608643e-02 3.628320097923278809e-01 9.132800251245498657e-02 -5.967580080032348633e-01 3.910950124263763428e-01 5.796279907226562500e-01 -1.197826027870178223e+00 -5.346480011940002441e-01 -2.037200033664703369e-01 8.235110044479370117e-01 6.179190278053283691e-01 -2.377199940383434296e-02 3.992249965667724609e-01 -1.646270006895065308e-01 4.732010066509246826e-01 -5.608220100402832031e-01 3.072749972343444824e-01 -3.684430122375488281e-01 -5.292699933052062988e-01 6.497599929571151733e-02 8.068100363016128540e-02 -3.169029951095581055e-01 1.296756029129028320e+00 2.022220045328140259e-01 6.191610097885131836e-01 7.821450233459472656e-01 5.798209905624389648e-01 -4.359900057315826416e-01 4.042879939079284668e-01 7.100039720535278320e-01 -2.108519971370697021e-01 4.199799895286560059e-02 -4.035719931125640869e-01 8.202009797096252441e-01 1.824502944946289062e+00 -6.971759796142578125e-01 -6.289300322532653809e-02 4.289200007915496826e-01 1.002339005470275879e+00 4.726270139217376709e-01 -7.177579998970031738e-01 -7.886340022087097168e-01 7.387369871139526367e-01 -3.454129993915557861e-01 1.086520031094551086e-01 6.105399876832962036e-02 2.726170122623443604e-01 -5.988800153136253357e-02 5.597720146179199219e-01 2.764250040054321289e-01 6.151360273361206055e-01 5.021340250968933105e-01 -2.331909984350204468e-01 1.505517959594726562e+00 -7.433810234069824219e-01 4.686599969863891602e-01 1.592839956283569336e-01 -4.154959917068481445e-01 5.199339985847473145e-01 2.711999928578734398e-03 -2.236469984054565430e-01 3.954049944877624512e-01 1.237347006797790527e+00 -9.177999943494796753e-02 6.383579969406127930e-01 6.579859852790832520e-01 2.476769983768463135e-01 3.982400149106979370e-02 1.054500043392181396e-02 8.666700124740600586e-01 1.311230063438415527e-01 7.184780240058898926e-01 -1.129759997129440308e-01 5.886480212211608887e-01 -3.860990107059478760e-01 -1.656630039215087891e-01 -2.674199938774108887e-01 -4.631769955158233643e-01 -1.208750009536743164e-01 1.133123040199279785e+00 1.494966030120849609e+00 -1.644880026578903198e-01 -1.658309996128082275e-01 -2.840340137481689453e-01 -1.372797966003417969e+00 6.050899997353553772e-02 1.010656952857971191e+00 -2.980760037899017334e-01 4.414499923586845398e-02 -1.447409987449645996e-01 3.504270017147064209e-01 -8.549379706382751465e-01 4.328350126743316650e-01 -2.123969942331314087e-01 4.566529989242553711e-01 -7.616940140724182129e-01 7.770140171051025391e-01 -5.952199921011924744e-02 -4.882340133190155029e-01 2.537949979305267334e-01 -1.180439963936805725e-01 -5.838779807090759277e-01 4.927600026130676270e-01 -2.555240094661712646e-01 -7.399889826774597168e-01 -2.479950040578842163e-01 -1.572069972753524780e-01 -7.020100206136703491e-02 -3.160879909992218018e-01 3.949609994888305664e-01 9.069299697875976562e-02 -3.888750076293945312e-01 -5.550109744071960449e-01 1.502900011837482452e-02 9.925580024719238281e-01 1.379519999027252197e-01 1.553059965372085571e-01 -3.322199881076812744e-01 -1.164136052131652832e+00 1.028725028038024902e+00 3.010469973087310791e-01 4.521310031414031982e-01 -3.925949931144714355e-01 -4.108639955520629883e-01 1.020540952682495117e+00 -3.377009928226470947e-01 -2.042820006608963013e-01 6.194409728050231934e-01 -6.437349915504455566e-01 -4.868499934673309326e-02 -1.103430032730102539e+00 -9.157810211181640625e-01 3.159059882164001465e-01 1.387130022048950195e-01 -4.883440136909484863e-01 1.064811944961547852e+00 -1.826100051403045654e-01 -1.215450018644332886e-01 -3.221765041351318359e+00 -2.318706035614013672e+00 -1.192276000976562500e+00 -3.905209898948669434e-01 -5.892410278320312500e-01 -4.884960055351257324e-01 -1.410319954156875610e-01 3.362600132822990417e-02 -5.401239991188049316e-01 -5.350630283355712891e-01 6.895610094070434570e-01 5.279960036277770996e-01 -3.089460134506225586e-01 -2.093909978866577148e-01 -1.223499998450279236e-01 -4.528590142726898193e-01 -3.382169902324676514e-01 -4.948759973049163818e-01 1.514978051185607910e+00 1.386723041534423828e+00 6.866340041160583496e-01 8.685299754142761230e-02 1.274179965257644653e-01 1.095759034156799316e+00 -4.053899943828582764e-01 1.060000038705766201e-03 1.589560061693191528e-01 8.176339864730834961e-01 -1.414469927549362183e-01 -1.128499031066894531e+00 4.174529910087585449e-01 2.011200040578842163e-01 4.758859872817993164e-01 -8.201099932193756104e-02 1.355510056018829346e-01 -3.133029937744140625e-01 -5.567370057106018066e-01 -1.273985981941223145e+00 7.954379916191101074e-01 2.806339859962463379e-01 1.702959984540939331e-01 5.412690043449401855e-01 3.803240060806274414e-01 5.573329925537109375e-01 -5.276550054550170898e-01 4.475750029087066650e-01 7.511579990386962891e-01 1.487524986267089844e+00 -1.908410042524337769e-01 3.913759887218475342e-01 -2.599689960479736328e-01 -1.035190001130104065e-01 -5.947899818420410156e-02 1.467279940843582153e-01 -1.240599993616342545e-02 -1.112465023994445801e+00 -9.401879906654357910e-01 -1.088189005851745605e+00 -2.508569955825805664e-01 1.972849965095520020e-01 -1.715649962425231934e-01 -1.919630020856857300e-01 -2.288489937782287598e-01 -1.038351058959960938e+00 -1.395391941070556641e+00 1.424629986286163330e-01 5.627299845218658447e-02 -3.073169887065887451e-01 -5.008450150489807129e-01 -8.360790014266967773e-01 1.061195969581604004e+00 1.054203033447265625e+00 9.575330018997192383e-01 -6.716000288724899292e-02 2.433770000934600830e-01 -7.121899724006652832e-01 3.704819977283477783e-01 5.106229782104492188e-01 -1.814450025558471680e-01 -3.272400051355361938e-02 1.554629951715469360e-01 -6.720550060272216797e-01 9.717339873313903809e-01 -3.356170058250427246e-01 -6.633549928665161133e-01 -4.554300010204315186e-01 3.204390108585357666e-01 -5.724740028381347656e-01 -6.618800014257431030e-02 -2.732270061969757080e-01 -5.608899891376495361e-02 1.493283033370971680e+00 8.221830129623413086e-01 1.653659939765930176e-01 -2.619619965553283691e-01 -1.401839971542358398e+00 -3.026399947702884674e-02 1.043850034475326538e-01 2.526459991931915283e-01 -1.303887963294982910e+00 -7.118059992790222168e-01 -1.685315012931823730e+00 -1.064743995666503906e+00 1.321398973464965820e+00 -7.405999898910522461e-01 6.127319931983947754e-01 -7.558259963989257812e-01 -4.786820113658905029e-01 8.757950067520141602e-01 -8.271260261535644531e-01 2.285660058259963989e-01 -1.555780023336410522e-01 -1.257929950952529907e-01 -7.202619910240173340e-01 3.788479864597320557e-01 -7.018129825592041016e-01 3.106729984283447266e-01 -4.344730079174041748e-01 3.125819861888885498e-01 -5.827270150184631348e-01 -1.119800005108118057e-02 -4.328010082244873047e-01 6.421200186014175415e-02 -1.880279928445816040e-01 -5.208899825811386108e-02 2.369300089776515961e-02 -3.042420148849487305e-01 8.478990197181701660e-01 -3.151099979877471924e-01 -4.815090000629425049e-01 3.508859872817993164e-01 -5.555700063705444336e-01 -4.137639999389648438e-01 2.839849889278411865e-01 6.061930060386657715e-01 -5.438809990882873535e-01 4.273979961872100830e-01 2.023369967937469482e-01 -2.722400054335594177e-02 2.124669998884201050e-01 -9.825199842453002930e-01 8.241440057754516602e-01 7.430580258369445801e-01 1.127009987831115723e-01 4.956089854240417480e-01 -6.138430237770080566e-01 -2.967289984226226807e-01 -1.072129979729652405e-01 -2.102340012788772583e-01 3.575260043144226074e-01 8.742900192737579346e-02 9.497500211000442505e-02 -1.292880028486251831e-01 7.528100013732910156e-01 -2.337550073862075806e-01 -2.273319959640502930e-01 4.818579852581024170e-01 2.290879935026168823e-01 6.334360241889953613e-01 2.226600050926208496e-02 4.968560039997100830e-01 2.914400026202201843e-02 -7.480400055646896362e-02 -7.584850192070007324e-01 -4.919900000095367432e-01 5.591899752616882324e-01 -1.314149975776672363e+00 -1.339902043342590332e+00 -1.392367959022521973e+00 4.019460082054138184e-01 -3.045910000801086426e-01 1.103020012378692627e-01 3.328149914741516113e-01 -4.101150035858154297e-01 6.365110278129577637e-01 1.781159937381744385e-01 -9.273740053176879883e-01 1.374389976263046265e-01 1.071620941162109375e+00 -9.070760011672973633e-01 -2.356899976730346680e-01 -3.629649877548217773e-01 2.106360048055648804e-01 -7.761880159378051758e-01 -1.055215001106262207e+00 1.046046018600463867e+00 -1.188169002532958984e+00 6.713449954986572266e-01 -1.486634969711303711e+00 4.823999945074319839e-03 -3.393819928169250488e-01 6.760069727897644043e-01 6.009100079536437988e-01 -1.022346973419189453e+00 1.071349978446960449e-01 4.243240058422088623e-01 -3.159239888191223145e-01 1.014449968934059143e-01 6.425539851188659668e-01 2.020708084106445312e+00 9.092500060796737671e-02 -2.972910106182098389e-01 -1.245393991470336914e+00 9.481199830770492554e-02 1.036600023508071899e-02 4.492380023002624512e-01 -3.806529939174652100e-01 -9.165980219841003418e-01 -8.296000212430953979e-02 -3.170900046825408936e-01 7.493280172348022461e-01 -9.805250167846679688e-01 1.542999967932701111e-02 7.371900230646133423e-02 3.908379971981048584e-01 7.800900191068649292e-02 9.529700130224227905e-02 -1.673119962215423584e-01 -4.287999868392944336e-02 7.569800019264221191e-01 9.308369755744934082e-01 5.786399915814399719e-02 7.744699716567993164e-02 -6.584150195121765137e-01 -4.163709878921508789e-01 -8.275000378489494324e-03 1.074910014867782593e-01 2.708579897880554199e-01 8.578130006790161133e-01 -2.715609967708587646e-01 8.350600302219390869e-02 -1.695269942283630371e-01 -3.397080004215240479e-01 -1.875140070915222168e-01 -1.191990002989768982e-01 5.606849789619445801e-01 -1.060720011591911316e-01 4.735629856586456299e-01 -2.929449975490570068e-01 -1.869110018014907837e-01 3.574649989604949951e-01 -3.566069900989532471e-01 -8.862249851226806641e-01 -9.864140152931213379e-01 5.029169917106628418e-01 -1.048019051551818848e+00 -1.915359944105148315e-01 2.176519930362701416e-01 1.051599979400634766e-01 4.623590111732482910e-01 7.612239718437194824e-01 6.400880217552185059e-01 8.089140057563781738e-01 8.680350184440612793e-01 -2.185211896896362305e+00 2.025450021028518677e-01 -2.948229908943176270e-01 3.968980014324188232e-01 -4.144279956817626953e-01 -4.826779961585998535e-01 3.047859966754913330e-01 -3.817020058631896973e-01 -1.490139961242675781e-01 3.957479894161224365e-01 5.691729784011840820e-01 -1.734230071306228638e-01 -1.757000014185905457e-02 -1.738590002059936523e-01 1.913920044898986816e-01 7.654300332069396973e-02 -8.642569780349731445e-01 2.409040033817291260e-01 1.134567022323608398e+00 -1.859679967164993286e-01 -6.362509727478027344e-01 -3.476409912109375000e-01 -1.257629990577697754e-01 -3.580699861049652100e-02 -7.124890089035034180e-01 2.087710052728652954e-01 -6.834899783134460449e-01 6.689500063657760620e-02 9.379900246858596802e-02 1.790360063314437866e-01 7.564199715852737427e-02 4.248189926147460938e-01 5.352470278739929199e-01 1.329403042793273926e+00 -2.180320024490356445e-01 2.045360058546066284e-01 9.778339862823486328e-01 -1.644637942314147949e+00 -1.949059963226318359e-01 4.305669963359832764e-01 -4.614019989967346191e-01 4.799610078334808350e-01 1.848800033330917358e-01 -7.752999663352966309e-02 -7.915819883346557617e-01 1.215455055236816406e+00 1.047924041748046875e+00 8.985980153083801270e-01 -1.900500059127807617e-02 7.160530090332031250e-01 4.975380003452301025e-01 8.466590046882629395e-01 3.048419952392578125e-01 1.371160000562667847e-01 8.787670135498046875e-01 1.573799923062324524e-02 2.590410113334655762e-01 -2.791990041732788086e-01 -5.212100148200988770e-01 6.098399758338928223e-01 5.826429724693298340e-01 9.767109751701354980e-01 3.914740085601806641e-01 -1.401160061359405518e-01 6.916700303554534912e-02 -3.602330088615417480e-01 -3.892120122909545898e-01 2.586860060691833496e-01 -3.239199891686439514e-02 -1.087455034255981445e+00 6.662409901618957520e-01 2.552329897880554199e-01 5.402370095252990723e-01 5.188399925827980042e-02 3.469929993152618408e-01 -1.611799933016300201e-02 5.751190185546875000e-01 -3.900429904460906982e-01 -2.902309894561767578e-01 6.918500363826751709e-02 4.272399842739105225e-02 4.625700116157531738e-01 2.948980033397674561e-01 -6.049119830131530762e-01 3.320859968662261963e-01 -1.444469988346099854e-01 -1.080399975180625916e-01 -4.584630131721496582e-01 1.445139944553375244e-01 -1.171053051948547363e+00 8.922100067138671875e-01 -7.887309789657592773e-01 3.087509870529174805e-01 -1.293890953063964844e+00 -4.984699934720993042e-02 -1.550676941871643066e+00 -6.943510174751281738e-01 -9.122859835624694824e-01 5.629730224609375000e-01 -6.160749793052673340e-01 9.022500365972518921e-02 8.963689804077148438e-01 4.393599927425384521e-01 -7.621539831161499023e-01 1.747999936342239380e-01 6.299480199813842773e-01 6.181750297546386719e-01 5.279930233955383301e-01 2.422520071268081665e-01 -4.816700145602226257e-02 -8.003169894218444824e-01 -5.330190062522888184e-01 -8.506439924240112305e-01 -4.921370148658752441e-01 -8.671879768371582031e-01 -1.365605950355529785e+00 2.532579898834228516e-01 -1.121009945869445801e+00 2.687659859657287598e-01 1.404111981391906738e+00 2.032325983047485352e+00 7.324870228767395020e-01 -3.477889895439147949e-01 -2.166479974985122681e-01 5.199699997901916504e-01 -9.987570047378540039e-01 8.482139706611633301e-01 -6.154850125312805176e-01 -5.338230133056640625e-01 -4.335780143737792969e-01 -1.006428003311157227e+00 -1.075550019741058350e-01 1.856528997421264648e+00 1.452980041503906250e-01 -6.099269986152648926e-01 1.372220069169998169e-01 4.620319902896881104e-01 4.695949852466583252e-01 -8.214880228042602539e-01 6.379999965429306030e-02 2.525700032711029053e-01 -3.155379891395568848e-01