   6   6   0   0
  0.5000000E+03  0.3000000E-08  0.1000000E-08  0.1000000E-08  0.5000000E-15
  1.000000000000000E-004
  CAR 
 unknown system                          
      1.54930833    -26.07989806  301     -6.64160015      1.00000000
    -26.080  0.0000E+00  0.0000E+00
    -25.988  0.0000E+00  0.0000E+00
    -25.896  0.0000E+00  0.0000E+00
    -25.804  0.0000E+00  0.0000E+00
    -25.712  0.0000E+00  0.0000E+00
    -25.619  0.0000E+00  0.0000E+00
    -25.527  0.0000E+00  0.0000E+00
    -25.435  0.0000E+00  0.0000E+00
    -25.343  0.0000E+00  0.0000E+00
    -25.251  0.0000E+00  0.0000E+00
    -25.159  0.0000E+00  0.0000E+00
    -25.067  0.7095E-10  0.6535E-11
    -24.975  0.2194E-03  0.2021E-04
    -24.883  0.1057E+01  0.9738E-01
    -24.791  0.1693E+02  0.1656E+01
    -24.698  0.3762E+01  0.2003E+01
    -24.606  0.8009E+01  0.2741E+01
    -24.514  0.1343E+02  0.3977E+01
    -24.422  0.2495E+00  0.4000E+01
    -24.330  0.1160E-04  0.4000E+01
    -24.238  0.7860E-12  0.4000E+01
    -24.146  0.0000E+00  0.4000E+01
    -24.054  0.0000E+00  0.4000E+01
    -23.962  0.0000E+00  0.4000E+01
    -23.870  0.0000E+00  0.4000E+01
    -23.777  0.0000E+00  0.4000E+01
    -23.685  0.0000E+00  0.4000E+01
    -23.593  0.0000E+00  0.4000E+01
    -23.501  0.0000E+00  0.4000E+01
    -23.409  0.0000E+00  0.4000E+01
    -23.317  0.0000E+00  0.4000E+01
    -23.225  0.0000E+00  0.4000E+01
    -23.133  0.0000E+00  0.4000E+01
    -23.041  0.0000E+00  0.4000E+01
    -22.949  0.0000E+00  0.4000E+01
    -22.856  0.0000E+00  0.4000E+01
    -22.764  0.0000E+00  0.4000E+01
    -22.672  0.0000E+00  0.4000E+01
    -22.580  0.0000E+00  0.4000E+01
    -22.488  0.0000E+00  0.4000E+01
    -22.396  0.0000E+00  0.4000E+01
    -22.304  0.0000E+00  0.4000E+01
    -22.212  0.0000E+00  0.4000E+01
    -22.120  0.0000E+00  0.4000E+01
    -22.028  0.0000E+00  0.4000E+01
    -21.936  0.0000E+00  0.4000E+01
    -21.843  0.0000E+00  0.4000E+01
    -21.751  0.0000E+00  0.4000E+01
    -21.659  0.0000E+00  0.4000E+01
    -21.567  0.0000E+00  0.4000E+01
    -21.475  0.0000E+00  0.4000E+01
    -21.383  0.0000E+00  0.4000E+01
    -21.291  0.0000E+00  0.4000E+01
    -21.199  0.0000E+00  0.4000E+01
    -21.107  0.0000E+00  0.4000E+01
    -21.015  0.0000E+00  0.4000E+01
    -20.922  0.0000E+00  0.4000E+01
    -20.830  0.0000E+00  0.4000E+01
    -20.738  0.0000E+00  0.4000E+01
    -20.646  0.0000E+00  0.4000E+01
    -20.554  0.0000E+00  0.4000E+01
    -20.462  0.0000E+00  0.4000E+01
    -20.370  0.0000E+00  0.4000E+01
    -20.278  0.0000E+00  0.4000E+01
    -20.186  0.0000E+00  0.4000E+01
    -20.094  0.0000E+00  0.4000E+01
    -20.001  0.0000E+00  0.4000E+01
    -19.909  0.0000E+00  0.4000E+01
    -19.817  0.0000E+00  0.4000E+01
    -19.725  0.0000E+00  0.4000E+01
    -19.633  0.0000E+00  0.4000E+01
    -19.541  0.0000E+00  0.4000E+01
    -19.449  0.0000E+00  0.4000E+01
    -19.357  0.0000E+00  0.4000E+01
    -19.265  0.0000E+00  0.4000E+01
    -19.173  0.0000E+00  0.4000E+01
    -19.080  0.0000E+00  0.4000E+01
    -18.988  0.0000E+00  0.4000E+01
    -18.896  0.0000E+00  0.4000E+01
    -18.804  0.0000E+00  0.4000E+01
    -18.712  0.0000E+00  0.4000E+01
    -18.620  0.0000E+00  0.4000E+01
    -18.528  0.0000E+00  0.4000E+01
    -18.436  0.0000E+00  0.4000E+01
    -18.344  0.0000E+00  0.4000E+01
    -18.252  0.0000E+00  0.4000E+01
    -18.160  0.0000E+00  0.4000E+01
    -18.067  0.0000E+00  0.4000E+01
    -17.975  0.0000E+00  0.4000E+01
    -17.883  0.0000E+00  0.4000E+01
    -17.791  0.0000E+00  0.4000E+01
    -17.699  0.0000E+00  0.4000E+01
    -17.607  0.0000E+00  0.4000E+01
    -17.515  0.0000E+00  0.4000E+01
    -17.423  0.0000E+00  0.4000E+01
    -17.331  0.0000E+00  0.4000E+01
    -17.239  0.0000E+00  0.4000E+01
    -17.146  0.0000E+00  0.4000E+01
    -17.054  0.0000E+00  0.4000E+01
    -16.962  0.0000E+00  0.4000E+01
    -16.870  0.0000E+00  0.4000E+01
    -16.778  0.0000E+00  0.4000E+01
    -16.686  0.0000E+00  0.4000E+01
    -16.594  0.0000E+00  0.4000E+01
    -16.502  0.0000E+00  0.4000E+01
    -16.410  0.0000E+00  0.4000E+01
    -16.318  0.0000E+00  0.4000E+01
    -16.225  0.0000E+00  0.4000E+01
    -16.133  0.0000E+00  0.4000E+01
    -16.041  0.0000E+00  0.4000E+01
    -15.949  0.0000E+00  0.4000E+01
    -15.857  0.0000E+00  0.4000E+01
    -15.765  0.0000E+00  0.4000E+01
    -15.673  0.0000E+00  0.4000E+01
    -15.581  0.0000E+00  0.4000E+01
    -15.489  0.0000E+00  0.4000E+01
    -15.397  0.0000E+00  0.4000E+01
    -15.305  0.0000E+00  0.4000E+01
    -15.212  0.0000E+00  0.4000E+01
    -15.120  0.0000E+00  0.4000E+01
    -15.028  0.0000E+00  0.4000E+01
    -14.936  0.0000E+00  0.4000E+01
    -14.844  0.0000E+00  0.4000E+01
    -14.752  0.0000E+00  0.4000E+01
    -14.660  0.0000E+00  0.4000E+01
    -14.568  0.0000E+00  0.4000E+01
    -14.476  0.0000E+00  0.4000E+01
    -14.384  0.0000E+00  0.4000E+01
    -14.291  0.0000E+00  0.4000E+01
    -14.199  0.0000E+00  0.4000E+01
    -14.107  0.0000E+00  0.4000E+01
    -14.015  0.0000E+00  0.4000E+01
    -13.923  0.0000E+00  0.4000E+01
    -13.831  0.0000E+00  0.4000E+01
    -13.739  0.0000E+00  0.4000E+01
    -13.647  0.0000E+00  0.4000E+01
    -13.555  0.0000E+00  0.4000E+01
    -13.463  0.0000E+00  0.4000E+01
    -13.370  0.0000E+00  0.4000E+01
    -13.278  0.0000E+00  0.4000E+01
    -13.186  0.0000E+00  0.4000E+01
    -13.094  0.0000E+00  0.4000E+01
    -13.002  0.0000E+00  0.4000E+01
    -12.910  0.6269E-13  0.4000E+01
    -12.818  0.2128E-05  0.4000E+01
    -12.726  0.1017E+00  0.4009E+01
    -12.634  0.1081E+02  0.5005E+01
    -12.542  0.1070E+02  0.5991E+01
    -12.449  0.5246E+00  0.6039E+01
    -12.357  0.1492E+02  0.7414E+01
    -12.265  0.6350E+01  0.7998E+01
    -12.173  0.1780E-01  0.8000E+01
    -12.081  0.9477E-07  0.8000E+01
    -11.989  0.0000E+00  0.8000E+01
    -11.897  0.0000E+00  0.8000E+01
    -11.805  0.0000E+00  0.8000E+01
    -11.713  0.0000E+00  0.8000E+01
    -11.621  0.0000E+00  0.8000E+01
    -11.529  0.0000E+00  0.8000E+01
    -11.436  0.0000E+00  0.8000E+01
    -11.344  0.0000E+00  0.8000E+01
    -11.252  0.0000E+00  0.8000E+01
    -11.160  0.0000E+00  0.8000E+01
    -11.068  0.0000E+00  0.8000E+01
    -10.976  0.0000E+00  0.8000E+01
    -10.884  0.0000E+00  0.8000E+01
    -10.792  0.0000E+00  0.8000E+01
    -10.700  0.0000E+00  0.8000E+01
    -10.608  0.0000E+00  0.8000E+01
    -10.515  0.0000E+00  0.8000E+01
    -10.423  0.0000E+00  0.8000E+01
    -10.331  0.0000E+00  0.8000E+01
    -10.239  0.0000E+00  0.8000E+01
    -10.147  0.0000E+00  0.8000E+01
    -10.055  0.0000E+00  0.8000E+01
     -9.963  0.0000E+00  0.8000E+01
     -9.871  0.0000E+00  0.8000E+01
     -9.779  0.0000E+00  0.8000E+01
     -9.687  0.1205E-14  0.8000E+01
     -9.594  0.1626E-06  0.8000E+01
     -9.502  0.2428E-01  0.8002E+01
     -9.410  0.7047E+01  0.8651E+01
     -9.318  0.1430E+02  0.9969E+01
     -9.226  0.5967E+00  0.1002E+02
     -9.134  0.1351E+02  0.1127E+02
     -9.042  0.7919E+01  0.1200E+02
     -8.950  0.3487E-01  0.1200E+02
     -8.858  0.3073E-06  0.1200E+02
     -8.766  0.4822E-14  0.1200E+02
     -8.673  0.0000E+00  0.1200E+02
     -8.581  0.0000E+00  0.1200E+02
     -8.489  0.0000E+00  0.1200E+02
     -8.397  0.0000E+00  0.1200E+02
     -8.305  0.0000E+00  0.1200E+02
     -8.213  0.0000E+00  0.1200E+02
     -8.121  0.0000E+00  0.1200E+02
     -8.029  0.0000E+00  0.1200E+02
     -7.937  0.0000E+00  0.1200E+02
     -7.845  0.0000E+00  0.1200E+02
     -7.753  0.0000E+00  0.1200E+02
     -7.660  0.0000E+00  0.1200E+02
     -7.568  0.0000E+00  0.1200E+02
     -7.476  0.4822E-14  0.1200E+02
     -7.384  0.3536E-06  0.1200E+02
     -7.292  0.3774E-01  0.1200E+02
     -7.200  0.8117E+01  0.1275E+02
     -7.108  0.1332E+02  0.1398E+02
     -7.016  0.3826E+00  0.1401E+02
     -6.924  0.1178E+02  0.1510E+02
     -6.832  0.9722E+01  0.1599E+02
     -6.739  0.6912E-01  0.1600E+02
     -6.647  0.1048E-05  0.1600E+02
     -6.555  0.2170E-13  0.1600E+02
     -6.463  0.0000E+00  0.1600E+02
     -6.371  0.0000E+00  0.1600E+02
     -6.279  0.0000E+00  0.1600E+02
     -6.187  0.0000E+00  0.1600E+02
     -6.095  0.0000E+00  0.1600E+02
     -6.003  0.0000E+00  0.1600E+02
     -5.911  0.0000E+00  0.1600E+02
     -5.818  0.0000E+00  0.1600E+02
     -5.726  0.0000E+00  0.1600E+02
     -5.634  0.0000E+00  0.1600E+02
     -5.542  0.0000E+00  0.1600E+02
     -5.450  0.0000E+00  0.1600E+02
     -5.358  0.0000E+00  0.1600E+02
     -5.266  0.0000E+00  0.1600E+02
     -5.174  0.0000E+00  0.1600E+02
     -5.082  0.0000E+00  0.1600E+02
     -4.990  0.0000E+00  0.1600E+02
     -4.898  0.0000E+00  0.1600E+02
     -4.805  0.0000E+00  0.1600E+02
     -4.713  0.0000E+00  0.1600E+02
     -4.621  0.0000E+00  0.1600E+02
     -4.529  0.0000E+00  0.1600E+02
     -4.437  0.0000E+00  0.1600E+02
     -4.345  0.0000E+00  0.1600E+02
     -4.253  0.0000E+00  0.1600E+02
     -4.161  0.0000E+00  0.1600E+02
     -4.069  0.0000E+00  0.1600E+02
     -3.977  0.0000E+00  0.1600E+02
     -3.884  0.0000E+00  0.1600E+02
     -3.792  0.0000E+00  0.1600E+02
     -3.700  0.0000E+00  0.1600E+02
     -3.608  0.0000E+00  0.1600E+02
     -3.516  0.0000E+00  0.1600E+02
     -3.424  0.0000E+00  0.1600E+02
     -3.332  0.0000E+00  0.1600E+02
     -3.240  0.0000E+00  0.1600E+02
     -3.148  0.0000E+00  0.1600E+02
     -3.056  0.0000E+00  0.1600E+02
     -2.963  0.0000E+00  0.1600E+02
     -2.871  0.0000E+00  0.1600E+02
     -2.779  0.0000E+00  0.1600E+02
     -2.687  0.0000E+00  0.1600E+02
     -2.595  0.0000E+00  0.1600E+02
     -2.503  0.0000E+00  0.1600E+02
     -2.411  0.0000E+00  0.1600E+02
     -2.319  0.0000E+00  0.1600E+02
     -2.227  0.0000E+00  0.1600E+02
     -2.135  0.0000E+00  0.1600E+02
     -2.042  0.0000E+00  0.1600E+02
     -1.950  0.0000E+00  0.1600E+02
     -1.858  0.0000E+00  0.1600E+02
     -1.766  0.0000E+00  0.1600E+02
     -1.674  0.0000E+00  0.1600E+02
     -1.582  0.0000E+00  0.1600E+02
     -1.490  0.8196E-11  0.1600E+02
     -1.398  0.5444E-04  0.1600E+02
     -1.306  0.5437E+00  0.1605E+02
     -1.214  0.1554E+02  0.1748E+02
     -1.122  0.5618E+01  0.1800E+02
     -1.029  0.8716E-01  0.1801E+02
     -0.937  0.9936E+01  0.1892E+02
     -0.845  0.1157E+02  0.1999E+02
     -0.753  0.1322E+00  0.2000E+02
     -0.661  0.3463E-05  0.2000E+02
     -0.569  0.1302E-12  0.2000E+02
     -0.477  0.0000E+00  0.2000E+02
     -0.385  0.0000E+00  0.2000E+02
     -0.293  0.0000E+00  0.2000E+02
     -0.201  0.0000E+00  0.2000E+02
     -0.108  0.5123E-13  0.2000E+02
     -0.016  0.1850E-05  0.2000E+02
      0.076  0.9431E-01  0.2001E+02
      0.168  0.1060E+02  0.2099E+02
      0.260  0.1482E+02  0.2235E+02
      0.352  0.1693E+02  0.2391E+02
      0.444  0.9942E+00  0.2400E+02
      0.536  0.1933E-03  0.2400E+02
      0.628  0.5866E-10  0.2400E+02
      0.720  0.0000E+00  0.2400E+02
      0.813  0.0000E+00  0.2400E+02
      0.905  0.0000E+00  0.2400E+02
      0.997  0.0000E+00  0.2400E+02
      1.089  0.0000E+00  0.2400E+02
      1.181  0.0000E+00  0.2400E+02
      1.273  0.0000E+00  0.2400E+02
      1.365  0.0000E+00  0.2400E+02
      1.457  0.0000E+00  0.2400E+02
      1.549  0.0000E+00  0.2400E+02
