<?xml version="1.0" encoding="ISO-8859-1"?>
<modeling>
 <generator>
  <i name="program" type="string">vasp </i>
  <i name="version" type="string">5.4.4.18Apr17-6-g9f103f2a35  </i>
  <i name="subversion" type="string">(build Nov 25 2019 16:34:31) complex            parallel </i>
  <i name="platform" type="string">LinuxIFC </i>
  <i name="date" type="string">2021 04 06 </i>
  <i name="time" type="string">12:18:02 </i>
 </generator>
 <incar>
  <i type="string" name="PREC">a</i>
  <i type="string" name="ALGO">fast</i>
  <i name="AMIN">      0.00500000</i>
  <i type="int" name="NELM">   300</i>
  <i type="int" name="NELMIN">     4</i>
  <i type="int" name="IBRION">    -1</i>
  <i name="EDIFF">      0.00000001</i>
  <i type="int" name="NSW">     0</i>
  <i type="int" name="ISIF">     2</i>
  <i name="ENCUT">   1500.00000000</i>
  <i type="logical" name="LREAL"> F  </i>
  <i type="int" name="ISMEAR">     0</i>
  <i name="SIGMA">      0.05000000</i>
  <i name="KSPACING">      0.50000000</i>
  <i type="logical" name="KGAMMA"> F  </i>
  <i name="PSTRESS">      0.00000000</i>
  <i type="logical" name="LWAVE"> F  </i>
  <i type="logical" name="LCHARG"> F  </i>
  <v type="int" name="KPOINT_BSE">    -1     0     0     0</v>
  <i type="int" name="NELM">   300</i>
 </incar>
 <structure name="primitive_cell" >
  <crystal>
   <varray name="basis" >
    <v>      30.00000000       0.00000000       0.00000000 </v>
    <v>       0.00000000      10.00000000       0.00000000 </v>
    <v>       0.00000000       0.00000000      10.00000000 </v>
   </varray>
   <i name="volume">   3000.00000000 </i>
   <varray name="rec_basis" >
    <v>       0.03333333       0.00000000       0.00000000 </v>
    <v>       0.00000000       0.10000000       0.00000000 </v>
    <v>       0.00000000       0.00000000       0.10000000 </v>
   </varray>
  </crystal>
  <varray name="positions" >
   <v>       0.18853563       0.15710957       0.17600000 </v>
   <v>       0.15513922       0.16672783       0.17649328 </v>
   <v>       0.19921080       0.25541218       0.17439231 </v>
   <v>      -0.04486896       0.15710957       0.17600000 </v>
   <v>      -0.05375150       0.09907990       0.09607226 </v>
   <v>      -0.05387697       0.09941802       0.25610440 </v>
  </varray>
 </structure>
 <varray name="primitive_index" >
  <v type="int" >        1 </v>
  <v type="int" >        4 </v>
  <v type="int" >        3 </v>
  <v type="int" >        2 </v>
  <v type="int" >        6 </v>
  <v type="int" >        5 </v>
 </varray>
 <kpoints>
  <generation param="Monkhorst-Pack">
   <v type="int" name="divisions">       1        2        2 </v>
   <v name="usershift">      0.00000000       0.00000000       0.00000000 </v>
   <v name="genvec1">      1.00000000       0.00000000       0.00000000 </v>
   <v name="genvec2">      0.00000000       0.50000000       0.00000000 </v>
   <v name="genvec3">      0.00000000       0.00000000       0.50000000 </v>
   <v name="shift">      0.00000000       0.50000000       0.50000000 </v>
  </generation>
  <varray name="kpointlist" >
   <v>       0.00000000       0.25000000       0.25000000 </v>
   <v>       0.00000000      -0.25000000       0.25000000 </v>
  </varray>
  <varray name="weights" >
   <v>       0.50000000 </v>
   <v>       0.50000000 </v>
  </varray>
 </kpoints>
 <parameters>
  <separator name="general" >
   <i type="string" name="SYSTEM">unknown system</i>
   <i type="logical" name="LCOMPAT"> F  </i>
  </separator>
  <separator name="electronic" >
   <i type="string" name="PREC">a</i>
   <i name="ENMAX">   1500.00000000</i>
   <i name="ENAUG">   1000.00000000</i>
   <i name="EDIFF">      0.00000001</i>
   <i type="int" name="IALGO">    68</i>
   <i type="int" name="IWAVPR">    10</i>
   <i type="int" name="NBANDS">    12</i>
   <i name="NELECT">     16.00000000</i>
   <i type="int" name="TURBO">     0</i>
   <i type="int" name="IRESTART">     0</i>
   <i type="int" name="NREBOOT">     0</i>
   <i type="int" name="NMIN">     0</i>
   <i name="EREF">      0.00000000</i>
   <separator name="electronic smearing" >
    <i type="int" name="ISMEAR">     0</i>
    <i name="SIGMA">      0.05000000</i>
    <i name="KSPACING">      0.50000000</i>
    <i type="logical" name="KGAMMA"> F  </i>
   </separator>
   <separator name="electronic projectors" >
    <i type="logical" name="LREAL"> F  </i>
    <v name="ROPT">      0.00000000      0.00000000</v>
    <i type="int" name="LMAXPAW">  -100</i>
    <i type="int" name="LMAXMIX">     2</i>
    <i type="logical" name="NLSPLINE"> F  </i>
   </separator>
   <separator name="electronic startup" >
    <i type="int" name="ISTART">     0</i>
    <i type="int" name="ICHARG">     2</i>
    <i type="int" name="INIWAV">     1</i>
   </separator>
   <separator name="electronic spin" >
    <i type="int" name="ISPIN">     1</i>
    <i type="logical" name="LNONCOLLINEAR"> F  </i>
    <v name="MAGMOM">      1.00000000      1.00000000      1.00000000      1.00000000      1.00000000      1.00000000</v>
    <i name="NUPDOWN">     -1.00000000</i>
    <i type="logical" name="LSORBIT"> F  </i>
    <v name="SAXIS">      0.00000000      0.00000000      1.00000000</v>
    <i type="logical" name="LSPIRAL"> F  </i>
    <v name="QSPIRAL">      0.00000000      0.00000000      0.00000000</v>
    <i type="logical" name="LZEROZ"> F  </i>
   </separator>
   <separator name="electronic exchange-correlation" >
    <i type="logical" name="LASPH"> F  </i>
    <i type="logical" name="LMETAGGA"> F  </i>
   </separator>
   <separator name="electronic convergence" >
    <i type="int" name="NELM">   300</i>
    <i type="int" name="NELMDL">     0</i>
    <i type="int" name="NELMIN">     4</i>
    <i name="ENINI">   1500.00000000</i>
    <separator name="electronic convergence detail" >
     <i type="logical" name="LDIAG"> T  </i>
     <i type="logical" name="LSUBROT"> F  </i>
     <i name="WEIMIN">      0.00000000</i>
     <i name="EBREAK">      0.00000000</i>
     <i name="DEPER">      0.30000000</i>
     <i type="int" name="NRMM">     4</i>
     <i name="TIME">      0.40000000</i>
    </separator>
   </separator>
   <separator name="electronic mixer" >
    <i name="AMIX">      0.40000000</i>
    <i name="BMIX">      1.00000000</i>
    <i name="AMIN">      0.00500000</i>
    <i name="AMIX_MAG">      1.60000000</i>
    <i name="BMIX_MAG">      1.00000000</i>
    <separator name="electronic mixer details" >
     <i type="int" name="IMIX">     4</i>
     <i type="logical" name="MIXFIRST"> F  </i>
     <i type="int" name="MAXMIX">   -45</i>
     <i name="WC">    100.00000000</i>
     <i type="int" name="INIMIX">     1</i>
     <i type="int" name="MIXPRE">     1</i>
     <i type="int" name="MREMOVE">     5</i>
    </separator>
   </separator>
   <separator name="electronic dipolcorrection" >
    <i type="logical" name="LDIPOL"> F  </i>
    <i type="logical" name="LMONO"> F  </i>
    <i type="int" name="IDIPOL">     0</i>
    <i name="EPSILON">      1.00000000</i>
    <v name="DIPOL">   -100.00000000   -100.00000000   -100.00000000</v>
    <i name="EFIELD">      0.00000000</i>
   </separator>
  </separator>
  <separator name="grids" >
   <i type="int" name="NGX">   384</i>
   <i type="int" name="NGY">   126</i>
   <i type="int" name="NGZ">   126</i>
   <i type="int" name="NGXF">   768</i>
   <i type="int" name="NGYF">   252</i>
   <i type="int" name="NGZF">   252</i>
   <i type="logical" name="ADDGRID"> F  </i>
  </separator>
  <separator name="ionic" >
   <i type="int" name="NSW">     0</i>
   <i type="int" name="IBRION">    -1</i>
   <i type="int" name="MDALGO">     0</i>
   <i type="int" name="ISIF">     2</i>
   <i name="PSTRESS">      0.00000000</i>
   <i name="EDIFFG">      0.00000010</i>
   <i type="int" name="NFREE">     0</i>
   <i name="POTIM">      0.50000000</i>
   <i name="SMASS">     -3.00000000</i>
   <i name="SCALEE">      1.00000000</i>
  </separator>
  <separator name="ionic md" >
   <i name="TEBEG">      0.00010000</i>
   <i name="TEEND">      0.00010000</i>
   <i type="int" name="NBLOCK">     1</i>
   <i type="int" name="KBLOCK">     1</i>
   <i type="int" name="NPACO">   256</i>
   <i name="APACO">     16.00000000</i>
  </separator>
  <separator name="symmetry" >
   <i type="int" name="ISYM">     2</i>
   <i name="SYMPREC">      0.00001000</i>
  </separator>
  <separator name="dos" >
   <i type="int" name="LORBIT">     0</i>
   <v name="RWIGS">     -1.00000000     -1.00000000</v>
   <i type="int" name="NEDOS">   301</i>
   <i name="EMIN">     10.00000000</i>
   <i name="EMAX">    -10.00000000</i>
   <i name="EFERMI">      0.00000000</i>
  </separator>
  <separator name="writing" >
   <i type="int" name="NWRITE">     2</i>
   <i type="logical" name="LWAVE"> F  </i>
   <i type="logical" name="LDOWNSAMPLE"> F  </i>
   <i type="logical" name="LCHARG"> F  </i>
   <i type="logical" name="LPARD"> F  </i>
   <i type="logical" name="LVTOT"> F  </i>
   <i type="logical" name="LVHAR"> F  </i>
   <i type="logical" name="LELF"> F  </i>
   <i type="logical" name="LOPTICS"> F  </i>
   <v name="STM">      0.00000000      0.00000000      0.00000000      0.00000000      0.00000000      0.00000000      0.00000000</v>
  </separator>
  <separator name="performance" >
   <i type="int" name="NPAR">     2</i>
   <i type="int" name="NSIM">     4</i>
   <i type="int" name="NBLK">    -1</i>
   <i type="logical" name="LPLANE"> T  </i>
   <i type="logical" name="LSCALAPACK"> T  </i>
   <i type="logical" name="LSCAAWARE"> F  </i>
   <i type="logical" name="LSCALU"> F  </i>
   <i type="logical" name="LASYNC"> F  </i>
   <i type="logical" name="LORBITALREAL"> F  </i>
  </separator>
  <separator name="miscellaneous" >
   <i type="int" name="IDIOT">     3</i>
   <i type="int" name="ISPECIAL">     0</i>
   <i type="logical" name="LMUSIC"> F  </i>
   <v name="POMASS">     16.00000000      1.00000000</v>
   <v name="DARWINR">      0.00000000      0.00000000</v>
   <v name="DARWINV">      1.00000000      1.00000000</v>
   <i type="logical" name="LCORR"> T  </i>
  </separator>
  <i type="logical" name="GGA_COMPAT"> T  </i>
  <i type="logical" name="LBERRY"> F  </i>
  <i type="int" name="ICORELEVEL">     0</i>
  <i type="logical" name="LDAU"> F  </i>
  <i type="int" name="I_CONSTRAINED_M">     0</i>
  <separator name="electronic exchange-correlation" >
   <i type="string" name="GGA">--</i>
   <i type="int" name="VOSKOWN">     0</i>
   <i type="logical" name="LHFCALC"> F  </i>
   <i type="string" name="PRECFOCK"></i>
   <i type="logical" name="LSYMGRAD"> F  </i>
   <i type="logical" name="LHFONE"> F  </i>
   <i type="logical" name="LRHFCALC"> F  </i>
   <i type="logical" name="LTHOMAS"> F  </i>
   <i type="logical" name="LMODELHF"> F  </i>
   <i name="ENCUT4O">     -1.00000000</i>
   <i type="int" name="EXXOEP">     0</i>
   <i type="int" name="FOURORBIT">     0</i>
   <i name="AEXX">      0.00000000</i>
   <i name="HFALPHA">      0.00000000</i>
   <i name="MCALPHA">      0.00000000</i>
   <i name="ALDAX">      1.00000000</i>
   <i name="AGGAX">      1.00000000</i>
   <i name="ALDAC">      1.00000000</i>
   <i name="AGGAC">      1.00000000</i>
   <i type="int" name="NKREDX">     1</i>
   <i type="int" name="NKREDY">     1</i>
   <i type="int" name="NKREDZ">     1</i>
   <i type="logical" name="SHIFTRED"> F  </i>
   <i type="logical" name="ODDONLY"> F  </i>
   <i type="logical" name="EVENONLY"> F  </i>
   <i type="int" name="LMAXFOCK">     0</i>
   <i type="int" name="NMAXFOCKAE">     0</i>
   <i type="logical" name="LFOCKAEDFT"> F  </i>
   <i name="HFSCREEN">      0.00000000</i>
   <i name="HFSCREENC">      0.00000000</i>
   <i type="int" name="NBANDSGWLOW">     0</i>
  </separator>
  <separator name="vdW DFT" >
   <i type="logical" name="LUSE_VDW"> F  </i>
   <i name="Zab_VDW">     -0.84910000</i>
   <i name="PARAM1">      0.12340000</i>
   <i name="PARAM2">      1.00000000</i>
   <i name="PARAM3">      0.00000000</i>
  </separator>
  <separator name="model GW" >
   <i type="int" name="MODEL_GW">     0</i>
   <i name="MODEL_EPS0">    300.00000000</i>
   <i name="MODEL_ALPHA">      1.00000000</i>
  </separator>
  <separator name="linear response parameters" >
   <i type="logical" name="LEPSILON"> F  </i>
   <i type="logical" name="LRPA"> F  </i>
   <i type="logical" name="LNABLA"> F  </i>
   <i type="logical" name="LVEL"> F  </i>
   <i type="int" name="KINTER">     0</i>
   <i name="CSHIFT">      0.10000000</i>
   <i name="OMEGAMAX">     -1.00000000</i>
   <i name="DEG_THRESHOLD">      0.00200000</i>
   <i name="RTIME">     -0.10000000</i>
   <i name="WPLASMAI">      0.00000000</i>
   <v name="DFIELD">      0.00000000      0.00000000      0.00000000</v>
   <v name="WPLASMA">      0.00000000      0.00000000      0.00000000      0.00000000      0.00000000      0.00000000      0.00000000      0.00000000      0.00000000</v>
  </separator>
  <separator name="orbital magnetization" >
   <i type="logical" name="NUCIND"> F  </i>
   <v name="MAGPOS">      0.00000000      0.00000000      0.00000000</v>
   <i type="logical" name="LNICSALL"> T  </i>
   <i type="logical" name="ORBITALMAG"> F  </i>
   <i type="logical" name="LMAGBLOCH"> F  </i>
   <i type="logical" name="LCHIMAG"> F  </i>
   <i type="logical" name="LGAUGE"> T  </i>
   <i type="int" name="MAGATOM">     0</i>
   <v name="MAGDIPOL">      0.00000000      0.00000000      0.00000000</v>
   <v name="AVECCONST">      0.00000000      0.00000000      0.00000000</v>
  </separator>
  <separator name="response functions" >
   <i type="logical" name="LADDER"> F  </i>
   <i type="logical" name="LRPAFORCE"> F  </i>
   <i type="logical" name="LFXC"> F  </i>
   <i type="logical" name="LHARTREE"> T  </i>
   <i type="int" name="IBSE">     0</i>
   <v type="int" name="KPOINT">    -1     0     0     0</v>
   <i type="logical" name="LTCTE"> F  </i>
   <i type="logical" name="LTETE"> F  </i>
   <i type="logical" name="LTRIPLET"> F  </i>
   <i type="logical" name="LFXCEPS"> F  </i>
   <i type="logical" name="LFXHEG"> F  </i>
   <i type="int" name="NATURALO">     2</i>
   <i type="logical" name="L2ORDER"> F  </i>
   <i type="logical" name="LMP2LT"> F  </i>
   <i type="logical" name="LUSEW"> F  </i>
   <i name="ENCUTGW">     -2.00000000</i>
   <i name="ENCUTGWSOFT">     -2.00000000</i>
   <i name="ENCUTLF">     -1.00000000</i>
   <i type="int" name="LMAXMP2">    -1</i>
   <i name="SCISSOR">      0.00000000</i>
   <i type="int" name="NOMEGA">     0</i>
   <i type="int" name="NOMEGAR">     0</i>
   <i type="int" name="NBANDSGW">    -1</i>
   <i type="int" name="NBANDSO">    -1</i>
   <i type="int" name="NBANDSV">    -1</i>
   <i type="int" name="NELM">   300</i>
   <i type="int" name="NELMHF">     1</i>
   <i type="int" name="DIM">     3</i>
   <i type="int" name="ANTIRES">     0</i>
   <i name="OMEGAMAX">    -30.00000000</i>
   <i name="OMEGAMIN">    -30.00000000</i>
   <i name="OMEGATL">   -200.00000000</i>
   <i type="int" name="OMEGAGRID">   140</i>
   <i name="CSHIFT">     -0.10000000</i>
   <i type="logical" name="SELFENERGY"> F  </i>
   <i type="logical" name="LSPECTRAL"> F  </i>
   <i type="logical" name="LSPECTRALGW"> F  </i>
   <i type="logical" name="LSINGLES"> F  </i>
   <i type="logical" name="LFERMIGW"> F  </i>
   <i type="logical" name="ODDONLYGW"> F  </i>
   <i type="logical" name="EVENONLYGW"> F  </i>
   <i type="int" name="NKREDLFX">     1</i>
   <i type="int" name="NKREDLFY">     1</i>
   <i type="int" name="NKREDLFZ">     1</i>
   <i type="int" name="MAXMEM">  2800</i>
   <i type="int" name="TELESCOPE">     0</i>
   <i type="int" name="TAUPAR">     1</i>
   <i type="int" name="OMEGAPAR">    -1</i>
   <i name="LAMBDA">      1.00000000</i>
  </separator>
  <separator name="External order field" >
   <i name="OFIELD_KAPPA">      0.00000000</i>
   <v name="OFIELD_K">      0.00000000      0.00000000      0.00000000</v>
   <i name="OFIELD_Q6_NEAR">      0.00000000</i>
   <i name="OFIELD_Q6_FAR">      0.00000000</i>
   <i name="OFIELD_A">      0.00000000</i>
  </separator>
 </parameters>
 <atominfo>
  <atoms>       6 </atoms>
  <types>       2 </types>
  <array name="atoms" >
   <dimension dim="1">ion</dimension>
   <field type="string">element</field>
   <field type="int">atomtype</field>
   <set>
    <rc><c>O </c><c>   1</c></rc>
    <rc><c>O </c><c>   1</c></rc>
    <rc><c>H </c><c>   2</c></rc>
    <rc><c>H </c><c>   2</c></rc>
    <rc><c>H </c><c>   2</c></rc>
    <rc><c>H </c><c>   2</c></rc>
   </set>
  </array>
  <array name="atomtypes" >
   <dimension dim="1">type</dimension>
   <field type="int">atomspertype</field>
   <field type="string">element</field>
   <field>mass</field>
   <field>valence</field>
   <field type="string">pseudopotential</field>
   <set>
    <rc><c>   2</c><c>O </c><c>     16.00000000</c><c>      6.00000000</c><c>  PAW_PBE O_h 06Feb2004                 </c></rc>
    <rc><c>   4</c><c>H </c><c>      1.00000000</c><c>      1.00000000</c><c>  PAW_PBE H_h 06Feb2004                 </c></rc>
   </set>
  </array>
 </atominfo>
 <structure name="initialpos" >
  <crystal>
   <varray name="basis" >
    <v>      30.00000000       0.00000000       0.00000000 </v>
    <v>       0.00000000      10.00000000       0.00000000 </v>
    <v>       0.00000000       0.00000000      10.00000000 </v>
   </varray>
   <i name="volume">   3000.00000000 </i>
   <varray name="rec_basis" >
    <v>       0.03333333       0.00000000       0.00000000 </v>
    <v>       0.00000000       0.10000000       0.00000000 </v>
    <v>       0.00000000       0.00000000       0.10000000 </v>
   </varray>
  </crystal>
  <varray name="positions" >
   <v>       0.18853563       0.15710957       0.17600000 </v>
   <v>       0.95513104       0.15710957       0.17600000 </v>
   <v>       0.19921080       0.25541218       0.17439231 </v>
   <v>       0.15513922       0.16672783       0.17649328 </v>
   <v>       0.94612303       0.09941802       0.25610440 </v>
   <v>       0.94624850       0.09907990       0.09607226 </v>
  </varray>
 </structure>
 <calculation>
  <scstep>
   <time name="dav">    3.22    3.26</time>
   <time name="total">    5.89    5.99</time>
   <energy>
    <i name="alphaZ">      0.21758540 </i>
    <i name="ewald">    271.45142057 </i>
    <i name="hartreedc">   -997.39709161 </i>
    <i name="XCdc">     60.59473784 </i>
    <i name="pawpsdc">    697.41634940 </i>
    <i name="pawaedc">   -699.85762974 </i>
    <i name="eentropy">     -0.00000301 </i>
    <i name="bandstr">    -95.08751450 </i>
    <i name="atom">    914.70366869 </i>
    <i name="e_fr_energy">    152.04152305 </i>
    <i name="e_wo_entrp">    152.04152605 </i>
    <i name="e_0_energy">    152.04152455 </i>
   </energy>
  </scstep>
  <scstep>
   <time name="dav">    4.40    4.46</time>
   <time name="total">    4.40    4.46</time>
   <energy>
    <i name="e_fr_energy">     54.17078845 </i>
    <i name="e_wo_entrp">     54.17078845 </i>
    <i name="e_0_energy">     54.17078845 </i>
   </energy>
  </scstep>
  <scstep>
   <time name="dav">    4.12    4.14</time>
   <time name="total">    4.12    4.14</time>
   <energy>
    <i name="e_fr_energy">    -19.49863164 </i>
    <i name="e_wo_entrp">    -19.49863164 </i>
    <i name="e_0_energy">    -19.49863164 </i>
   </energy>
  </scstep>
  <scstep>
   <time name="dav">    3.09    3.10</time>
   <time name="total">    3.09    3.10</time>
   <energy>
    <i name="e_fr_energy">    -31.61213550 </i>
    <i name="e_wo_entrp">    -31.61213550 </i>
    <i name="e_0_energy">    -31.61213550 </i>
   </energy>
  </scstep>
  <scstep>
   <time name="dav">    3.23    3.24</time>
   <time name="total">    3.76    3.77</time>
   <energy>
    <i name="e_fr_energy">    -31.98013441 </i>
    <i name="e_wo_entrp">    -31.98013441 </i>
    <i name="e_0_energy">    -31.98013441 </i>
   </energy>
  </scstep>
  <scstep>
   <time name="diag">    0.66    0.67</time>
   <time name="diis">    3.66    3.69</time>
   <time name="orth">    0.02    0.02</time>
   <time name="total">    7.61    7.65</time>
   <energy>
    <i name="e_fr_energy">    -28.60627428 </i>
    <i name="e_wo_entrp">    -28.60627428 </i>
    <i name="e_0_energy">    -28.60627428 </i>
   </energy>
  </scstep>
  <scstep>
   <time name="diag">    0.62    0.67</time>
   <time name="diis">    4.05    4.30</time>
   <time name="orth">    0.03    0.04</time>
   <time name="total">    7.95    8.30</time>
   <energy>
    <i name="e_fr_energy">    -28.55190979 </i>
    <i name="e_wo_entrp">    -28.55190979 </i>
    <i name="e_0_energy">    -28.55190979 </i>
   </energy>
  </scstep>
  <scstep>
   <time name="diag">    0.67    0.67</time>
   <time name="diis">    3.62    3.64</time>
   <time name="orth">    0.02    0.02</time>
   <time name="total">    7.57    7.67</time>
   <energy>
    <i name="e_fr_energy">    -29.53433751 </i>
    <i name="e_wo_entrp">    -29.53433751 </i>
    <i name="e_0_energy">    -29.53433751 </i>
   </energy>
  </scstep>
  <scstep>
   <time name="diag">    0.66    0.67</time>
   <time name="diis">    3.61    3.63</time>
   <time name="orth">    0.02    0.02</time>
   <time name="total">    7.52    7.59</time>
   <energy>
    <i name="e_fr_energy">    -28.31195796 </i>
    <i name="e_wo_entrp">    -28.31195796 </i>
    <i name="e_0_energy">    -28.31195796 </i>
   </energy>
  </scstep>
  <scstep>
   <time name="diag">    0.67    0.67</time>
   <time name="diis">    4.30    4.32</time>
   <time name="orth">    0.02    0.02</time>
   <time name="total">    8.28    8.31</time>
   <energy>
    <i name="e_fr_energy">    -28.32916759 </i>
    <i name="e_wo_entrp">    -28.32916759 </i>
    <i name="e_0_energy">    -28.32916759 </i>
   </energy>
  </scstep>
  <scstep>
   <time name="diag">    0.66    0.67</time>
   <time name="diis">    4.02    4.03</time>
   <time name="orth">    0.02    0.02</time>
   <time name="total">    7.98    8.02</time>
   <energy>
    <i name="e_fr_energy">    -28.32786068 </i>
    <i name="e_wo_entrp">    -28.32786068 </i>
    <i name="e_0_energy">    -28.32786068 </i>
   </energy>
  </scstep>
  <scstep>
   <time name="diag">    0.67    0.67</time>
   <time name="diis">    3.61    3.62</time>
   <time name="orth">    0.02    0.02</time>
   <time name="total">    7.56    7.59</time>
   <energy>
    <i name="e_fr_energy">    -28.32592701 </i>
    <i name="e_wo_entrp">    -28.32592701 </i>
    <i name="e_0_energy">    -28.32592701 </i>
   </energy>
  </scstep>
  <scstep>
   <time name="diag">    0.67    0.67</time>
   <time name="diis">    4.03    4.06</time>
   <time name="orth">    0.02    0.02</time>
   <time name="total">    7.99    8.03</time>
   <energy>
    <i name="e_fr_energy">    -28.32877341 </i>
    <i name="e_wo_entrp">    -28.32877341 </i>
    <i name="e_0_energy">    -28.32877341 </i>
   </energy>
  </scstep>
  <scstep>
   <time name="diag">    0.67    0.67</time>
   <time name="diis">    3.61    3.62</time>
   <time name="orth">    0.02    0.02</time>
   <time name="total">    7.58    7.59</time>
   <energy>
    <i name="e_fr_energy">    -28.33890131 </i>
    <i name="e_wo_entrp">    -28.33890131 </i>
    <i name="e_0_energy">    -28.33890131 </i>
   </energy>
  </scstep>
  <scstep>
   <time name="diag">    0.67    0.67</time>
   <time name="diis">    3.73    3.77</time>
   <time name="orth">    0.02    0.02</time>
   <time name="total">    7.65    7.73</time>
   <energy>
    <i name="e_fr_energy">    -28.33885266 </i>
    <i name="e_wo_entrp">    -28.33885266 </i>
    <i name="e_0_energy">    -28.33885266 </i>
   </energy>
  </scstep>
  <scstep>
   <time name="diag">    0.66    0.67</time>
   <time name="diis">    3.70    3.73</time>
   <time name="orth">    0.02    0.02</time>
   <time name="total">    7.48    7.68</time>
   <energy>
    <i name="e_fr_energy">    -28.34015875 </i>
    <i name="e_wo_entrp">    -28.34015875 </i>
    <i name="e_0_energy">    -28.34015875 </i>
   </energy>
  </scstep>
  <scstep>
   <time name="diag">    0.63    0.66</time>
   <time name="diis">    3.84    3.93</time>
   <time name="orth">    0.02    0.02</time>
   <time name="total">    7.63    7.86</time>
   <energy>
    <i name="e_fr_energy">    -28.34300923 </i>
    <i name="e_wo_entrp">    -28.34300923 </i>
    <i name="e_0_energy">    -28.34300923 </i>
   </energy>
  </scstep>
  <scstep>
   <time name="diag">    0.67    0.67</time>
   <time name="diis">    3.68    3.69</time>
   <time name="orth">    0.02    0.02</time>
   <time name="total">    7.64    7.66</time>
   <energy>
    <i name="e_fr_energy">    -28.34298013 </i>
    <i name="e_wo_entrp">    -28.34298013 </i>
    <i name="e_0_energy">    -28.34298013 </i>
   </energy>
  </scstep>
  <scstep>
   <time name="diag">    0.67    0.68</time>
   <time name="diis">    3.43    3.43</time>
   <time name="orth">    0.02    0.02</time>
   <time name="total">    7.37    7.38</time>
   <energy>
    <i name="e_fr_energy">    -28.34223218 </i>
    <i name="e_wo_entrp">    -28.34223218 </i>
    <i name="e_0_energy">    -28.34223218 </i>
   </energy>
  </scstep>
  <scstep>
   <time name="diag">    0.67    0.67</time>
   <time name="diis">    3.65    3.65</time>
   <time name="orth">    0.02    0.02</time>
   <time name="total">    7.58    7.59</time>
   <energy>
    <i name="e_fr_energy">    -28.34207964 </i>
    <i name="e_wo_entrp">    -28.34207964 </i>
    <i name="e_0_energy">    -28.34207964 </i>
   </energy>
  </scstep>
  <scstep>
   <time name="diag">    0.67    0.67</time>
   <time name="diis">    4.06    4.07</time>
   <time name="orth">    0.02    0.02</time>
   <time name="total">    8.02    8.03</time>
   <energy>
    <i name="e_fr_energy">    -28.34228902 </i>
    <i name="e_wo_entrp">    -28.34228902 </i>
    <i name="e_0_energy">    -28.34228902 </i>
   </energy>
  </scstep>
  <scstep>
   <time name="diag">    0.65    0.66</time>
   <time name="diis">    3.68    3.73</time>
   <time name="orth">    0.02    0.02</time>
   <time name="total">    7.63    7.72</time>
   <energy>
    <i name="e_fr_energy">    -28.34286263 </i>
    <i name="e_wo_entrp">    -28.34286263 </i>
    <i name="e_0_energy">    -28.34286263 </i>
   </energy>
  </scstep>
  <scstep>
   <time name="diag">    0.67    0.67</time>
   <time name="diis">    3.44    3.46</time>
   <time name="orth">    0.02    0.02</time>
   <time name="total">    7.38    7.42</time>
   <energy>
    <i name="e_fr_energy">    -28.34183236 </i>
    <i name="e_wo_entrp">    -28.34183236 </i>
    <i name="e_0_energy">    -28.34183236 </i>
   </energy>
  </scstep>
  <scstep>
   <time name="diag">    0.66    0.67</time>
   <time name="diis">    3.65    3.70</time>
   <time name="orth">    0.02    0.02</time>
   <time name="total">    7.61    7.68</time>
   <energy>
    <i name="e_fr_energy">    -28.34188256 </i>
    <i name="e_wo_entrp">    -28.34188256 </i>
    <i name="e_0_energy">    -28.34188256 </i>
   </energy>
  </scstep>
  <scstep>
   <time name="diag">    0.65    0.67</time>
   <time name="diis">    4.00    4.20</time>
   <time name="orth">    0.02    0.02</time>
   <time name="total">    7.91    8.17</time>
   <energy>
    <i name="e_fr_energy">    -28.34240224 </i>
    <i name="e_wo_entrp">    -28.34240224 </i>
    <i name="e_0_energy">    -28.34240224 </i>
   </energy>
  </scstep>
  <scstep>
   <time name="diag">    0.67    0.67</time>
   <time name="diis">    3.84    3.86</time>
   <time name="orth">    0.02    0.02</time>
   <time name="total">    7.84    7.86</time>
   <energy>
    <i name="e_fr_energy">    -28.34256923 </i>
    <i name="e_wo_entrp">    -28.34256923 </i>
    <i name="e_0_energy">    -28.34256923 </i>
   </energy>
  </scstep>
  <scstep>
   <time name="diag">    0.66    0.66</time>
   <time name="diis">    3.43    3.44</time>
   <time name="orth">    0.02    0.02</time>
   <time name="total">    7.43    7.46</time>
   <energy>
    <i name="e_fr_energy">    -28.34262469 </i>
    <i name="e_wo_entrp">    -28.34262469 </i>
    <i name="e_0_energy">    -28.34262469 </i>
   </energy>
  </scstep>
  <scstep>
   <time name="diag">    0.67    0.67</time>
   <time name="diis">    3.10    3.10</time>
   <time name="orth">    0.02    0.02</time>
   <time name="total">    7.10    7.12</time>
   <energy>
    <i name="e_fr_energy">    -28.34270654 </i>
    <i name="e_wo_entrp">    -28.34270654 </i>
    <i name="e_0_energy">    -28.34270654 </i>
   </energy>
  </scstep>
  <scstep>
   <time name="diag">    0.67    0.67</time>
   <time name="diis">    3.65    3.66</time>
   <time name="orth">    0.02    0.02</time>
   <time name="total">    7.67    7.69</time>
   <energy>
    <i name="e_fr_energy">    -28.34286407 </i>
    <i name="e_wo_entrp">    -28.34286407 </i>
    <i name="e_0_energy">    -28.34286407 </i>
   </energy>
  </scstep>
  <scstep>
   <time name="diag">    0.66    0.67</time>
   <time name="diis">    3.62    3.62</time>
   <time name="orth">    0.02    0.02</time>
   <time name="total">    7.62    7.64</time>
   <energy>
    <i name="e_fr_energy">    -28.34301198 </i>
    <i name="e_wo_entrp">    -28.34301198 </i>
    <i name="e_0_energy">    -28.34301198 </i>
   </energy>
  </scstep>
  <scstep>
   <time name="diag">    0.67    0.67</time>
   <time name="diis">    3.30    3.31</time>
   <time name="orth">    0.02    0.02</time>
   <time name="total">    7.34    7.37</time>
   <energy>
    <i name="e_fr_energy">    -28.34311306 </i>
    <i name="e_wo_entrp">    -28.34311306 </i>
    <i name="e_0_energy">    -28.34311306 </i>
   </energy>
  </scstep>
  <scstep>
   <time name="diag">    0.76    0.78</time>
   <time name="diis">    3.82    3.86</time>
   <time name="orth">    0.02    0.02</time>
   <time name="total">    7.96    8.04</time>
   <energy>
    <i name="e_fr_energy">    -28.34318768 </i>
    <i name="e_wo_entrp">    -28.34318768 </i>
    <i name="e_0_energy">    -28.34318768 </i>
   </energy>
  </scstep>
  <scstep>
   <time name="diag">    0.67    0.67</time>
   <time name="diis">    4.02    4.04</time>
   <time name="orth">    0.02    0.02</time>
   <time name="total">    8.05    8.08</time>
   <energy>
    <i name="e_fr_energy">    -28.34320633 </i>
    <i name="e_wo_entrp">    -28.34320633 </i>
    <i name="e_0_energy">    -28.34320633 </i>
   </energy>
  </scstep>
  <scstep>
   <time name="diag">    0.67    0.67</time>
   <time name="diis">    3.32    3.37</time>
   <time name="orth">    0.02    0.02</time>
   <time name="total">    7.39    7.44</time>
   <energy>
    <i name="e_fr_energy">    -28.34325149 </i>
    <i name="e_wo_entrp">    -28.34325149 </i>
    <i name="e_0_energy">    -28.34325149 </i>
   </energy>
  </scstep>
  <scstep>
   <time name="diag">    0.66    0.67</time>
   <time name="diis">    3.51    3.52</time>
   <time name="orth">    0.02    0.02</time>
   <time name="total">    7.58    7.59</time>
   <energy>
    <i name="e_fr_energy">    -28.34326451 </i>
    <i name="e_wo_entrp">    -28.34326451 </i>
    <i name="e_0_energy">    -28.34326451 </i>
   </energy>
  </scstep>
  <scstep>
   <time name="diag">    0.67    0.67</time>
   <time name="diis">    3.65    3.65</time>
   <time name="orth">    0.02    0.02</time>
   <time name="total">    7.77    7.79</time>
   <energy>
    <i name="e_fr_energy">    -28.34327110 </i>
    <i name="e_wo_entrp">    -28.34327110 </i>
    <i name="e_0_energy">    -28.34327110 </i>
   </energy>
  </scstep>
  <scstep>
   <time name="diag">    0.67    0.67</time>
   <time name="diis">    3.34    3.34</time>
   <time name="orth">    0.02    0.02</time>
   <time name="total">    7.47    7.48</time>
   <energy>
    <i name="e_fr_energy">    -28.34327479 </i>
    <i name="e_wo_entrp">    -28.34327479 </i>
    <i name="e_0_energy">    -28.34327479 </i>
   </energy>
  </scstep>
  <scstep>
   <time name="diag">    0.67    0.67</time>
   <time name="diis">    3.03    3.03</time>
   <time name="orth">    0.02    0.02</time>
   <time name="total">    7.21    7.22</time>
   <energy>
    <i name="e_fr_energy">    -28.34327655 </i>
    <i name="e_wo_entrp">    -28.34327655 </i>
    <i name="e_0_energy">    -28.34327655 </i>
   </energy>
  </scstep>
  <scstep>
   <time name="diag">    0.67    0.67</time>
   <time name="diis">    2.64    2.65</time>
   <time name="orth">    0.02    0.02</time>
   <time name="total">    6.81    6.82</time>
   <energy>
    <i name="e_fr_energy">    -28.34327766 </i>
    <i name="e_wo_entrp">    -28.34327766 </i>
    <i name="e_0_energy">    -28.34327766 </i>
   </energy>
  </scstep>
  <scstep>
   <time name="diag">    0.67    0.67</time>
   <time name="diis">    2.71    2.76</time>
   <time name="orth">    0.02    0.02</time>
   <time name="total">    6.99    7.09</time>
   <energy>
    <i name="e_fr_energy">    -28.34327800 </i>
    <i name="e_wo_entrp">    -28.34327800 </i>
    <i name="e_0_energy">    -28.34327800 </i>
   </energy>
  </scstep>
  <scstep>
   <time name="diag">    0.68    0.68</time>
   <time name="diis">    2.96    2.96</time>
   <time name="orth">    0.02    0.02</time>
   <time name="total">    7.19    7.20</time>
   <energy>
    <i name="e_fr_energy">    -28.34327820 </i>
    <i name="e_wo_entrp">    -28.34327820 </i>
    <i name="e_0_energy">    -28.34327820 </i>
   </energy>
  </scstep>
  <scstep>
   <time name="diag">    0.67    0.67</time>
   <time name="diis">    2.40    2.40</time>
   <time name="orth">    0.02    0.02</time>
   <time name="total">    6.64    6.65</time>
   <energy>
    <i name="e_fr_energy">    -28.34327838 </i>
    <i name="e_wo_entrp">    -28.34327838 </i>
    <i name="e_0_energy">    -28.34327838 </i>
   </energy>
  </scstep>
  <scstep>
   <time name="diag">    0.67    0.67</time>
   <time name="diis">    2.29    2.30</time>
   <time name="orth">    0.02    0.02</time>
   <time name="total">    6.53    6.55</time>
   <energy>
    <i name="e_fr_energy">    -28.34327846 </i>
    <i name="e_wo_entrp">    -28.34327846 </i>
    <i name="e_0_energy">    -28.34327846 </i>
   </energy>
  </scstep>
  <scstep>
   <time name="diag">    0.67    0.67</time>
   <time name="diis">    2.56    2.60</time>
   <time name="orth">    0.02    0.02</time>
   <time name="total">    6.81    6.85</time>
   <energy>
    <i name="e_fr_energy">    -28.34327849 </i>
    <i name="e_wo_entrp">    -28.34327849 </i>
    <i name="e_0_energy">    -28.34327849 </i>
   </energy>
  </scstep>
  <scstep>
   <time name="diag">    0.67    0.67</time>
   <time name="diis">    2.39    2.40</time>
   <time name="orth">    0.02    0.02</time>
   <time name="total">    6.65    6.67</time>
   <energy>
    <i name="e_fr_energy">    -28.34327854 </i>
    <i name="e_wo_entrp">    -28.34327854 </i>
    <i name="e_0_energy">    -28.34327854 </i>
   </energy>
  </scstep>
  <scstep>
   <time name="diag">    0.67    0.67</time>
   <time name="diis">    2.36    2.36</time>
   <time name="orth">    0.02    0.02</time>
   <time name="total">    6.65    6.67</time>
   <energy>
    <i name="e_fr_energy">    -28.34327857 </i>
    <i name="e_wo_entrp">    -28.34327857 </i>
    <i name="e_0_energy">    -28.34327857 </i>
   </energy>
  </scstep>
  <scstep>
   <time name="diag">    0.67    0.67</time>
   <time name="diis">    2.55    2.55</time>
   <time name="orth">    0.02    0.02</time>
   <time name="total">    6.03    6.04</time>
   <energy>
    <i name="alphaZ">      0.21758540 </i>
    <i name="ewald">    271.45142057 </i>
    <i name="hartreedc">  -1061.63031184 </i>
    <i name="XCdc">     63.97127538 </i>
    <i name="pawpsdc">   5064.04280735 </i>
    <i name="pawaedc">  -5066.92711737 </i>
    <i name="eentropy">     -0.00000000 </i>
    <i name="bandstr">   -214.17260675 </i>
    <i name="atom">    914.70366869 </i>
    <i name="e_fr_energy">    -28.34327858 </i>
    <i name="e_wo_entrp">    -28.34327858 </i>
    <i name="e_0_energy">    -28.34327858 </i>
   </energy>
  </scstep>
  <structure>
   <crystal>
    <varray name="basis" >
     <v>      30.00000000       0.00000000       0.00000000 </v>
     <v>       0.00000000      10.00000000       0.00000000 </v>
     <v>       0.00000000       0.00000000      10.00000000 </v>
    </varray>
    <i name="volume">   3000.00000000 </i>
    <varray name="rec_basis" >
     <v>       0.03333333       0.00000000       0.00000000 </v>
     <v>       0.00000000       0.10000000       0.00000000 </v>
     <v>       0.00000000       0.00000000       0.10000000 </v>
    </varray>
   </crystal>
   <varray name="positions" >
    <v>       0.18853563       0.15710957       0.17600000 </v>
    <v>       0.95513104       0.15710957       0.17600000 </v>
    <v>       0.19921080       0.25541218       0.17439231 </v>
    <v>       0.15513922       0.16672783       0.17649328 </v>
    <v>       0.94612303       0.09941802       0.25610440 </v>
    <v>       0.94624850       0.09907990       0.09607226 </v>
   </varray>
  </structure>
  <varray name="forces" >
   <v>      -0.72409878       2.46834075      -0.03079518 </v>
   <v>      -1.07989484      -2.32912356       0.01507669 </v>
   <v>      -0.80738814      -2.36342136       0.03889458 </v>
   <v>       1.52747763      -0.10466687      -0.00810002 </v>
   <v>       0.54792448       1.16497011      -1.73039795 </v>
   <v>       0.53597966       1.16390094       1.71532189 </v>
  </varray>
  <varray name="stress" >
   <v>      -1.14961463      -0.68053589       0.01658145 </v>
   <v>      -0.68053589      -1.99703707       0.02151941 </v>
   <v>       0.01658146       0.02151941      -1.48798479 </v>
  </varray>
  <energy>
   <i name="e_fr_energy">    -28.34327858 </i>
   <i name="e_wo_entrp">    -28.34327858 </i>
   <i name="e_0_energy">     -0.00000000 </i>
  </energy>
  <time name="totalsc">  342.19  344.78</time>
  <eigenvalues>
   <array>
    <dimension dim="1">band</dimension>
    <dimension dim="2">kpoint</dimension>
    <dimension dim="3">spin</dimension>
    <field>eigene</field>
    <field>occ</field>
    <set>
     <set comment="spin 1">
      <set comment="kpoint 1">
       <r>  -24.8240    1.0000 </r>
       <r>  -24.5946    1.0000 </r>
       <r>  -12.6339    1.0000 </r>
       <r>  -12.3766    1.0000 </r>
       <r>   -9.3943    1.0000 </r>
       <r>   -9.1461    1.0000 </r>
       <r>   -7.1887    1.0000 </r>
       <r>   -6.9280    1.0000 </r>
       <r>   -1.2364    0.0000 </r>
       <r>   -0.9339    0.0000 </r>
       <r>    0.1683    0.0000 </r>
       <r>    0.2934    0.0000 </r>
      </set>
      <set comment="kpoint 2">
       <r>  -24.8240    1.0000 </r>
       <r>  -24.5946    1.0000 </r>
       <r>  -12.6339    1.0000 </r>
       <r>  -12.3766    1.0000 </r>
       <r>   -9.3943    1.0000 </r>
       <r>   -9.1461    1.0000 </r>
       <r>   -7.1887    1.0000 </r>
       <r>   -6.9280    1.0000 </r>
       <r>   -1.2364    0.0000 </r>
       <r>   -0.9338    0.0000 </r>
       <r>    0.1688    0.0000 </r>
       <r>    0.2913    0.0000 </r>
      </set>
     </set>
    </set>
   </array>
  </eigenvalues>
  <separator name="orbital magnetization" >
   <v name="MAGDIPOLOUT">      0.00000000      0.00000000      0.00000000</v>
  </separator>
  <dos>
   <i name="efermi">     -6.64160015 </i>
   <total>
    <array>
     <dimension dim="1">gridpoints</dimension>
     <dimension dim="2">spin</dimension>
     <field>energy</field>
     <field>total</field>
     <field>integrated</field>
     <set>
      <set comment="spin 1">
       <r>   -26.0799     0.0000     0.0000 </r>
       <r>   -25.9878     0.0000     0.0000 </r>
       <r>   -25.8957     0.0000     0.0000 </r>
       <r>   -25.8036     0.0000     0.0000 </r>
       <r>   -25.7115     0.0000     0.0000 </r>
       <r>   -25.6194     0.0000     0.0000 </r>
       <r>   -25.5273     0.0000     0.0000 </r>
       <r>   -25.4352     0.0000     0.0000 </r>
       <r>   -25.3431     0.0000     0.0000 </r>
       <r>   -25.2510     0.0000     0.0000 </r>
       <r>   -25.1589     0.0000     0.0000 </r>
       <r>   -25.0668     0.0000     0.0000 </r>
       <r>   -24.9747     0.0002     0.0000 </r>
       <r>   -24.8826     1.0572     0.0974 </r>
       <r>   -24.7905    16.9288     1.6565 </r>
       <r>   -24.6984     3.7619     2.0029 </r>
       <r>   -24.6063     8.0086     2.7405 </r>
       <r>   -24.5142    13.4260     3.9770 </r>
       <r>   -24.4221     0.2495     4.0000 </r>
       <r>   -24.3300     0.0000     4.0000 </r>
       <r>   -24.2380     0.0000     4.0000 </r>
       <r>   -24.1459     0.0000     4.0000 </r>
       <r>   -24.0538     0.0000     4.0000 </r>
       <r>   -23.9617     0.0000     4.0000 </r>
       <r>   -23.8696     0.0000     4.0000 </r>
       <r>   -23.7775     0.0000     4.0000 </r>
       <r>   -23.6854     0.0000     4.0000 </r>
       <r>   -23.5933     0.0000     4.0000 </r>
       <r>   -23.5012     0.0000     4.0000 </r>
       <r>   -23.4091     0.0000     4.0000 </r>
       <r>   -23.3170     0.0000     4.0000 </r>
       <r>   -23.2249     0.0000     4.0000 </r>
       <r>   -23.1328     0.0000     4.0000 </r>
       <r>   -23.0407     0.0000     4.0000 </r>
       <r>   -22.9486     0.0000     4.0000 </r>
       <r>   -22.8565     0.0000     4.0000 </r>
       <r>   -22.7644     0.0000     4.0000 </r>
       <r>   -22.6723     0.0000     4.0000 </r>
       <r>   -22.5802     0.0000     4.0000 </r>
       <r>   -22.4881     0.0000     4.0000 </r>
       <r>   -22.3960     0.0000     4.0000 </r>
       <r>   -22.3039     0.0000     4.0000 </r>
       <r>   -22.2118     0.0000     4.0000 </r>
       <r>   -22.1197     0.0000     4.0000 </r>
       <r>   -22.0276     0.0000     4.0000 </r>
       <r>   -21.9355     0.0000     4.0000 </r>
       <r>   -21.8434     0.0000     4.0000 </r>
       <r>   -21.7513     0.0000     4.0000 </r>
       <r>   -21.6592     0.0000     4.0000 </r>
       <r>   -21.5671     0.0000     4.0000 </r>
       <r>   -21.4750     0.0000     4.0000 </r>
       <r>   -21.3829     0.0000     4.0000 </r>
       <r>   -21.2908     0.0000     4.0000 </r>
       <r>   -21.1987     0.0000     4.0000 </r>
       <r>   -21.1066     0.0000     4.0000 </r>
       <r>   -21.0145     0.0000     4.0000 </r>
       <r>   -20.9224     0.0000     4.0000 </r>
       <r>   -20.8303     0.0000     4.0000 </r>
       <r>   -20.7383     0.0000     4.0000 </r>
       <r>   -20.6462     0.0000     4.0000 </r>
       <r>   -20.5541     0.0000     4.0000 </r>
       <r>   -20.4620     0.0000     4.0000 </r>
       <r>   -20.3699     0.0000     4.0000 </r>
       <r>   -20.2778     0.0000     4.0000 </r>
       <r>   -20.1857     0.0000     4.0000 </r>
       <r>   -20.0936     0.0000     4.0000 </r>
       <r>   -20.0015     0.0000     4.0000 </r>
       <r>   -19.9094     0.0000     4.0000 </r>
       <r>   -19.8173     0.0000     4.0000 </r>
       <r>   -19.7252     0.0000     4.0000 </r>
       <r>   -19.6331     0.0000     4.0000 </r>
       <r>   -19.5410     0.0000     4.0000 </r>
       <r>   -19.4489     0.0000     4.0000 </r>
       <r>   -19.3568     0.0000     4.0000 </r>
       <r>   -19.2647     0.0000     4.0000 </r>
       <r>   -19.1726     0.0000     4.0000 </r>
       <r>   -19.0805     0.0000     4.0000 </r>
       <r>   -18.9884     0.0000     4.0000 </r>
       <r>   -18.8963     0.0000     4.0000 </r>
       <r>   -18.8042     0.0000     4.0000 </r>
       <r>   -18.7121     0.0000     4.0000 </r>
       <r>   -18.6200     0.0000     4.0000 </r>
       <r>   -18.5279     0.0000     4.0000 </r>
       <r>   -18.4358     0.0000     4.0000 </r>
       <r>   -18.3437     0.0000     4.0000 </r>
       <r>   -18.2516     0.0000     4.0000 </r>
       <r>   -18.1595     0.0000     4.0000 </r>
       <r>   -18.0674     0.0000     4.0000 </r>
       <r>   -17.9753     0.0000     4.0000 </r>
       <r>   -17.8832     0.0000     4.0000 </r>
       <r>   -17.7911     0.0000     4.0000 </r>
       <r>   -17.6990     0.0000     4.0000 </r>
       <r>   -17.6069     0.0000     4.0000 </r>
       <r>   -17.5148     0.0000     4.0000 </r>
       <r>   -17.4227     0.0000     4.0000 </r>
       <r>   -17.3306     0.0000     4.0000 </r>
       <r>   -17.2386     0.0000     4.0000 </r>
       <r>   -17.1465     0.0000     4.0000 </r>
       <r>   -17.0544     0.0000     4.0000 </r>
       <r>   -16.9623     0.0000     4.0000 </r>
       <r>   -16.8702     0.0000     4.0000 </r>
       <r>   -16.7781     0.0000     4.0000 </r>
       <r>   -16.6860     0.0000     4.0000 </r>
       <r>   -16.5939     0.0000     4.0000 </r>
       <r>   -16.5018     0.0000     4.0000 </r>
       <r>   -16.4097     0.0000     4.0000 </r>
       <r>   -16.3176     0.0000     4.0000 </r>
       <r>   -16.2255     0.0000     4.0000 </r>
       <r>   -16.1334     0.0000     4.0000 </r>
       <r>   -16.0413     0.0000     4.0000 </r>
       <r>   -15.9492     0.0000     4.0000 </r>
       <r>   -15.8571     0.0000     4.0000 </r>
       <r>   -15.7650     0.0000     4.0000 </r>
       <r>   -15.6729     0.0000     4.0000 </r>
       <r>   -15.5808     0.0000     4.0000 </r>
       <r>   -15.4887     0.0000     4.0000 </r>
       <r>   -15.3966     0.0000     4.0000 </r>
       <r>   -15.3045     0.0000     4.0000 </r>
       <r>   -15.2124     0.0000     4.0000 </r>
       <r>   -15.1203     0.0000     4.0000 </r>
       <r>   -15.0282     0.0000     4.0000 </r>
       <r>   -14.9361     0.0000     4.0000 </r>
       <r>   -14.8440     0.0000     4.0000 </r>
       <r>   -14.7519     0.0000     4.0000 </r>
       <r>   -14.6598     0.0000     4.0000 </r>
       <r>   -14.5677     0.0000     4.0000 </r>
       <r>   -14.4756     0.0000     4.0000 </r>
       <r>   -14.3835     0.0000     4.0000 </r>
       <r>   -14.2914     0.0000     4.0000 </r>
       <r>   -14.1993     0.0000     4.0000 </r>
       <r>   -14.1072     0.0000     4.0000 </r>
       <r>   -14.0151     0.0000     4.0000 </r>
       <r>   -13.9230     0.0000     4.0000 </r>
       <r>   -13.8309     0.0000     4.0000 </r>
       <r>   -13.7389     0.0000     4.0000 </r>
       <r>   -13.6468     0.0000     4.0000 </r>
       <r>   -13.5547     0.0000     4.0000 </r>
       <r>   -13.4626     0.0000     4.0000 </r>
       <r>   -13.3705     0.0000     4.0000 </r>
       <r>   -13.2784     0.0000     4.0000 </r>
       <r>   -13.1863     0.0000     4.0000 </r>
       <r>   -13.0942     0.0000     4.0000 </r>
       <r>   -13.0021     0.0000     4.0000 </r>
       <r>   -12.9100     0.0000     4.0000 </r>
       <r>   -12.8179     0.0000     4.0000 </r>
       <r>   -12.7258     0.1017     4.0094 </r>
       <r>   -12.6337    10.8143     5.0053 </r>
       <r>   -12.5416    10.7022     5.9910 </r>
       <r>   -12.4495     0.5246     6.0393 </r>
       <r>   -12.3574    14.9214     7.4135 </r>
       <r>   -12.2653     6.3502     7.9984 </r>
       <r>   -12.1732     0.0178     8.0000 </r>
       <r>   -12.0811     0.0000     8.0000 </r>
       <r>   -11.9890     0.0000     8.0000 </r>
       <r>   -11.8969     0.0000     8.0000 </r>
       <r>   -11.8048     0.0000     8.0000 </r>
       <r>   -11.7127     0.0000     8.0000 </r>
       <r>   -11.6206     0.0000     8.0000 </r>
       <r>   -11.5285     0.0000     8.0000 </r>
       <r>   -11.4364     0.0000     8.0000 </r>
       <r>   -11.3443     0.0000     8.0000 </r>
       <r>   -11.2522     0.0000     8.0000 </r>
       <r>   -11.1601     0.0000     8.0000 </r>
       <r>   -11.0680     0.0000     8.0000 </r>
       <r>   -10.9759     0.0000     8.0000 </r>
       <r>   -10.8838     0.0000     8.0000 </r>
       <r>   -10.7917     0.0000     8.0000 </r>
       <r>   -10.6996     0.0000     8.0000 </r>
       <r>   -10.6075     0.0000     8.0000 </r>
       <r>   -10.5154     0.0000     8.0000 </r>
       <r>   -10.4233     0.0000     8.0000 </r>
       <r>   -10.3313     0.0000     8.0000 </r>
       <r>   -10.2392     0.0000     8.0000 </r>
       <r>   -10.1471     0.0000     8.0000 </r>
       <r>   -10.0550     0.0000     8.0000 </r>
       <r>    -9.9629     0.0000     8.0000 </r>
       <r>    -9.8708     0.0000     8.0000 </r>
       <r>    -9.7787     0.0000     8.0000 </r>
       <r>    -9.6866     0.0000     8.0000 </r>
       <r>    -9.5945     0.0000     8.0000 </r>
       <r>    -9.5024     0.0243     8.0022 </r>
       <r>    -9.4103     7.0472     8.6513 </r>
       <r>    -9.3182    14.3045     9.9687 </r>
       <r>    -9.2261     0.5967    10.0236 </r>
       <r>    -9.1340    13.5062    11.2675 </r>
       <r>    -9.0419     7.9186    11.9968 </r>
       <r>    -8.9498     0.0349    12.0000 </r>
       <r>    -8.8577     0.0000    12.0000 </r>
       <r>    -8.7656     0.0000    12.0000 </r>
       <r>    -8.6735     0.0000    12.0000 </r>
       <r>    -8.5814     0.0000    12.0000 </r>
       <r>    -8.4893     0.0000    12.0000 </r>
       <r>    -8.3972     0.0000    12.0000 </r>
       <r>    -8.3051     0.0000    12.0000 </r>
       <r>    -8.2130     0.0000    12.0000 </r>
       <r>    -8.1209     0.0000    12.0000 </r>
       <r>    -8.0288     0.0000    12.0000 </r>
       <r>    -7.9367     0.0000    12.0000 </r>
       <r>    -7.8446     0.0000    12.0000 </r>
       <r>    -7.7525     0.0000    12.0000 </r>
       <r>    -7.6604     0.0000    12.0000 </r>
       <r>    -7.5683     0.0000    12.0000 </r>
       <r>    -7.4762     0.0000    12.0000 </r>
       <r>    -7.3841     0.0000    12.0000 </r>
       <r>    -7.2920     0.0377    12.0035 </r>
       <r>    -7.1999     8.1173    12.7511 </r>
       <r>    -7.1078    13.3205    13.9778 </r>
       <r>    -7.0157     0.3826    14.0131 </r>
       <r>    -6.9236    11.7825    15.0982 </r>
       <r>    -6.8316     9.7225    15.9936 </r>
       <r>    -6.7395     0.0691    16.0000 </r>
       <r>    -6.6474     0.0000    16.0000 </r>
       <r>    -6.5553     0.0000    16.0000 </r>
       <r>    -6.4632     0.0000    16.0000 </r>
       <r>    -6.3711     0.0000    16.0000 </r>
       <r>    -6.2790     0.0000    16.0000 </r>
       <r>    -6.1869     0.0000    16.0000 </r>
       <r>    -6.0948     0.0000    16.0000 </r>
       <r>    -6.0027     0.0000    16.0000 </r>
       <r>    -5.9106     0.0000    16.0000 </r>
       <r>    -5.8185     0.0000    16.0000 </r>
       <r>    -5.7264     0.0000    16.0000 </r>
       <r>    -5.6343     0.0000    16.0000 </r>
       <r>    -5.5422     0.0000    16.0000 </r>
       <r>    -5.4501     0.0000    16.0000 </r>
       <r>    -5.3580     0.0000    16.0000 </r>
       <r>    -5.2659     0.0000    16.0000 </r>
       <r>    -5.1738     0.0000    16.0000 </r>
       <r>    -5.0817     0.0000    16.0000 </r>
       <r>    -4.9896     0.0000    16.0000 </r>
       <r>    -4.8975     0.0000    16.0000 </r>
       <r>    -4.8054     0.0000    16.0000 </r>
       <r>    -4.7133     0.0000    16.0000 </r>
       <r>    -4.6212     0.0000    16.0000 </r>
       <r>    -4.5291     0.0000    16.0000 </r>
       <r>    -4.4370     0.0000    16.0000 </r>
       <r>    -4.3449     0.0000    16.0000 </r>
       <r>    -4.2528     0.0000    16.0000 </r>
       <r>    -4.1607     0.0000    16.0000 </r>
       <r>    -4.0686     0.0000    16.0000 </r>
       <r>    -3.9765     0.0000    16.0000 </r>
       <r>    -3.8844     0.0000    16.0000 </r>
       <r>    -3.7923     0.0000    16.0000 </r>
       <r>    -3.7002     0.0000    16.0000 </r>
       <r>    -3.6081     0.0000    16.0000 </r>
       <r>    -3.5160     0.0000    16.0000 </r>
       <r>    -3.4239     0.0000    16.0000 </r>
       <r>    -3.3319     0.0000    16.0000 </r>
       <r>    -3.2398     0.0000    16.0000 </r>
       <r>    -3.1477     0.0000    16.0000 </r>
       <r>    -3.0556     0.0000    16.0000 </r>
       <r>    -2.9635     0.0000    16.0000 </r>
       <r>    -2.8714     0.0000    16.0000 </r>
       <r>    -2.7793     0.0000    16.0000 </r>
       <r>    -2.6872     0.0000    16.0000 </r>
       <r>    -2.5951     0.0000    16.0000 </r>
       <r>    -2.5030     0.0000    16.0000 </r>
       <r>    -2.4109     0.0000    16.0000 </r>
       <r>    -2.3188     0.0000    16.0000 </r>
       <r>    -2.2267     0.0000    16.0000 </r>
       <r>    -2.1346     0.0000    16.0000 </r>
       <r>    -2.0425     0.0000    16.0000 </r>
       <r>    -1.9504     0.0000    16.0000 </r>
       <r>    -1.8583     0.0000    16.0000 </r>
       <r>    -1.7662     0.0000    16.0000 </r>
       <r>    -1.6741     0.0000    16.0000 </r>
       <r>    -1.5820     0.0000    16.0000 </r>
       <r>    -1.4899     0.0000    16.0000 </r>
       <r>    -1.3978     0.0001    16.0000 </r>
       <r>    -1.3057     0.5437    16.0501 </r>
       <r>    -1.2136    15.5421    17.4815 </r>
       <r>    -1.1215     5.6178    17.9988 </r>
       <r>    -1.0294     0.0872    18.0069 </r>
       <r>    -0.9373     9.9365    18.9220 </r>
       <r>    -0.8452    11.5728    19.9878 </r>
       <r>    -0.7531     0.1322    20.0000 </r>
       <r>    -0.6610     0.0000    20.0000 </r>
       <r>    -0.5689     0.0000    20.0000 </r>
       <r>    -0.4768     0.0000    20.0000 </r>
       <r>    -0.3847     0.0000    20.0000 </r>
       <r>    -0.2926     0.0000    20.0000 </r>
       <r>    -0.2005     0.0000    20.0000 </r>
       <r>    -0.1084     0.0000    20.0000 </r>
       <r>    -0.0163     0.0000    20.0000 </r>
       <r>     0.0758     0.0943    20.0087 </r>
       <r>     0.1678    10.6009    20.9850 </r>
       <r>     0.2599    14.8173    22.3496 </r>
       <r>     0.3520    16.9254    23.9084 </r>
       <r>     0.4441     0.9942    24.0000 </r>
       <r>     0.5362     0.0002    24.0000 </r>
       <r>     0.6283     0.0000    24.0000 </r>
       <r>     0.7204     0.0000    24.0000 </r>
       <r>     0.8125     0.0000    24.0000 </r>
       <r>     0.9046     0.0000    24.0000 </r>
       <r>     0.9967     0.0000    24.0000 </r>
       <r>     1.0888     0.0000    24.0000 </r>
       <r>     1.1809     0.0000    24.0000 </r>
       <r>     1.2730     0.0000    24.0000 </r>
       <r>     1.3651     0.0000    24.0000 </r>
       <r>     1.4572     0.0000    24.0000 </r>
       <r>     1.5493     0.0000    24.0000 </r>
      </set>
     </set>
    </array>
   </total>
  </dos>
 </calculation>
 <structure name="finalpos" >
  <crystal>
   <varray name="basis" >
    <v>      30.00000000       0.00000000       0.00000000 </v>
    <v>       0.00000000      10.00000000       0.00000000 </v>
    <v>       0.00000000       0.00000000      10.00000000 </v>
   </varray>
   <i name="volume">   3000.00000000 </i>
   <varray name="rec_basis" >
    <v>       0.03333333       0.00000000       0.00000000 </v>
    <v>       0.00000000       0.10000000       0.00000000 </v>
    <v>       0.00000000       0.00000000       0.10000000 </v>
   </varray>
  </crystal>
  <varray name="positions" >
   <v>       0.18853563       0.15710957       0.17600000 </v>
   <v>       0.95513104       0.15710957       0.17600000 </v>
   <v>       0.19921080       0.25541218       0.17439231 </v>
   <v>       0.15513922       0.16672783       0.17649328 </v>
   <v>       0.94612303       0.09941802       0.25610440 </v>
   <v>       0.94624850       0.09907990       0.09607226 </v>
  </varray>
 </structure>
</modeling>
