   6   6   0   0
  0.5000000E+03  0.3000000E-08  0.1000000E-08  0.1000000E-08  0.5000000E-15
  1.000000000000000E-004
  CAR 
 unknown system                          
      1.73924138    -26.22743058  301     -6.54588519      1.00000000
    -26.227  0.0000E+00  0.0000E+00
    -26.134  0.0000E+00  0.0000E+00
    -26.041  0.0000E+00  0.0000E+00
    -25.948  0.0000E+00  0.0000E+00
    -25.855  0.0000E+00  0.0000E+00
    -25.761  0.0000E+00  0.0000E+00
    -25.668  0.0000E+00  0.0000E+00
    -25.575  0.0000E+00  0.0000E+00
    -25.482  0.0000E+00  0.0000E+00
    -25.388  0.0000E+00  0.0000E+00
    -25.295  0.0000E+00  0.0000E+00
    -25.202  0.3881E-10  0.3618E-11
    -25.109  0.1715E-03  0.1599E-04
    -25.016  0.1001E+01  0.9336E-01
    -24.922  0.1683E+02  0.1662E+01
    -24.829  0.3619E+01  0.2000E+01
    -24.736  0.3473E-02  0.2000E+01
    -24.643  0.1268E-04  0.2000E+01
    -24.549  0.2819E+00  0.2026E+01
    -24.456  0.1390E+02  0.3322E+01
    -24.363  0.7252E+01  0.3998E+01
    -24.270  0.2443E-01  0.4000E+01
    -24.177  0.1377E-06  0.4000E+01
    -24.083  0.0000E+00  0.4000E+01
    -23.990  0.0000E+00  0.4000E+01
    -23.897  0.0000E+00  0.4000E+01
    -23.804  0.0000E+00  0.4000E+01
    -23.710  0.0000E+00  0.4000E+01
    -23.617  0.0000E+00  0.4000E+01
    -23.524  0.0000E+00  0.4000E+01
    -23.431  0.0000E+00  0.4000E+01
    -23.338  0.0000E+00  0.4000E+01
    -23.244  0.0000E+00  0.4000E+01
    -23.151  0.0000E+00  0.4000E+01
    -23.058  0.0000E+00  0.4000E+01
    -22.965  0.0000E+00  0.4000E+01
    -22.871  0.0000E+00  0.4000E+01
    -22.778  0.0000E+00  0.4000E+01
    -22.685  0.0000E+00  0.4000E+01
    -22.592  0.0000E+00  0.4000E+01
    -22.499  0.0000E+00  0.4000E+01
    -22.405  0.0000E+00  0.4000E+01
    -22.312  0.0000E+00  0.4000E+01
    -22.219  0.0000E+00  0.4000E+01
    -22.126  0.0000E+00  0.4000E+01
    -22.032  0.0000E+00  0.4000E+01
    -21.939  0.0000E+00  0.4000E+01
    -21.846  0.0000E+00  0.4000E+01
    -21.753  0.0000E+00  0.4000E+01
    -21.660  0.0000E+00  0.4000E+01
    -21.566  0.0000E+00  0.4000E+01
    -21.473  0.0000E+00  0.4000E+01
    -21.380  0.0000E+00  0.4000E+01
    -21.287  0.0000E+00  0.4000E+01
    -21.193  0.0000E+00  0.4000E+01
    -21.100  0.0000E+00  0.4000E+01
    -21.007  0.0000E+00  0.4000E+01
    -20.914  0.0000E+00  0.4000E+01
    -20.821  0.0000E+00  0.4000E+01
    -20.727  0.0000E+00  0.4000E+01
    -20.634  0.0000E+00  0.4000E+01
    -20.541  0.0000E+00  0.4000E+01
    -20.448  0.0000E+00  0.4000E+01
    -20.354  0.0000E+00  0.4000E+01
    -20.261  0.0000E+00  0.4000E+01
    -20.168  0.0000E+00  0.4000E+01
    -20.075  0.0000E+00  0.4000E+01
    -19.982  0.0000E+00  0.4000E+01
    -19.888  0.0000E+00  0.4000E+01
    -19.795  0.0000E+00  0.4000E+01
    -19.702  0.0000E+00  0.4000E+01
    -19.609  0.0000E+00  0.4000E+01
    -19.515  0.0000E+00  0.4000E+01
    -19.422  0.0000E+00  0.4000E+01
    -19.329  0.0000E+00  0.4000E+01
    -19.236  0.0000E+00  0.4000E+01
    -19.143  0.0000E+00  0.4000E+01
    -19.049  0.0000E+00  0.4000E+01
    -18.956  0.0000E+00  0.4000E+01
    -18.863  0.0000E+00  0.4000E+01
    -18.770  0.0000E+00  0.4000E+01
    -18.676  0.0000E+00  0.4000E+01
    -18.583  0.0000E+00  0.4000E+01
    -18.490  0.0000E+00  0.4000E+01
    -18.397  0.0000E+00  0.4000E+01
    -18.304  0.0000E+00  0.4000E+01
    -18.210  0.0000E+00  0.4000E+01
    -18.117  0.0000E+00  0.4000E+01
    -18.024  0.0000E+00  0.4000E+01
    -17.931  0.0000E+00  0.4000E+01
    -17.837  0.0000E+00  0.4000E+01
    -17.744  0.0000E+00  0.4000E+01
    -17.651  0.0000E+00  0.4000E+01
    -17.558  0.0000E+00  0.4000E+01
    -17.465  0.0000E+00  0.4000E+01
    -17.371  0.0000E+00  0.4000E+01
    -17.278  0.0000E+00  0.4000E+01
    -17.185  0.0000E+00  0.4000E+01
    -17.092  0.0000E+00  0.4000E+01
    -16.998  0.0000E+00  0.4000E+01
    -16.905  0.0000E+00  0.4000E+01
    -16.812  0.0000E+00  0.4000E+01
    -16.719  0.0000E+00  0.4000E+01
    -16.626  0.0000E+00  0.4000E+01
    -16.532  0.0000E+00  0.4000E+01
    -16.439  0.0000E+00  0.4000E+01
    -16.346  0.0000E+00  0.4000E+01
    -16.253  0.0000E+00  0.4000E+01
    -16.159  0.0000E+00  0.4000E+01
    -16.066  0.0000E+00  0.4000E+01
    -15.973  0.0000E+00  0.4000E+01
    -15.880  0.0000E+00  0.4000E+01
    -15.787  0.0000E+00  0.4000E+01
    -15.693  0.0000E+00  0.4000E+01
    -15.600  0.0000E+00  0.4000E+01
    -15.507  0.0000E+00  0.4000E+01
    -15.414  0.0000E+00  0.4000E+01
    -15.320  0.0000E+00  0.4000E+01
    -15.227  0.0000E+00  0.4000E+01
    -15.134  0.0000E+00  0.4000E+01
    -15.041  0.0000E+00  0.4000E+01
    -14.948  0.0000E+00  0.4000E+01
    -14.854  0.0000E+00  0.4000E+01
    -14.761  0.0000E+00  0.4000E+01
    -14.668  0.0000E+00  0.4000E+01
    -14.575  0.0000E+00  0.4000E+01
    -14.481  0.0000E+00  0.4000E+01
    -14.388  0.0000E+00  0.4000E+01
    -14.295  0.0000E+00  0.4000E+01
    -14.202  0.0000E+00  0.4000E+01
    -14.109  0.0000E+00  0.4000E+01
    -14.015  0.0000E+00  0.4000E+01
    -13.922  0.0000E+00  0.4000E+01
    -13.829  0.0000E+00  0.4000E+01
    -13.736  0.0000E+00  0.4000E+01
    -13.642  0.0000E+00  0.4000E+01
    -13.549  0.0000E+00  0.4000E+01
    -13.456  0.0000E+00  0.4000E+01
    -13.363  0.0000E+00  0.4000E+01
    -13.270  0.0000E+00  0.4000E+01
    -13.176  0.0000E+00  0.4000E+01
    -13.083  0.0000E+00  0.4000E+01
    -12.990  0.8382E-09  0.4000E+01
    -12.897  0.1180E-02  0.4000E+01
    -12.803  0.2342E+01  0.4218E+01
    -12.710  0.1740E+02  0.5840E+01
    -12.617  0.1713E+01  0.6000E+01
    -12.524  0.5667E-03  0.6000E+01
    -12.431  0.3633E-05  0.6000E+01
    -12.337  0.1475E+00  0.6014E+01
    -12.244  0.1205E+02  0.7137E+01
    -12.151  0.9201E+01  0.7995E+01
    -12.058  0.5321E-01  0.8000E+01
    -11.964  0.5516E-06  0.8000E+01
    -11.871  0.7146E-14  0.8000E+01
    -11.778  0.0000E+00  0.8000E+01
    -11.685  0.0000E+00  0.8000E+01
    -11.592  0.0000E+00  0.8000E+01
    -11.498  0.0000E+00  0.8000E+01
    -11.405  0.0000E+00  0.8000E+01
    -11.312  0.0000E+00  0.8000E+01
    -11.219  0.0000E+00  0.8000E+01
    -11.125  0.0000E+00  0.8000E+01
    -11.032  0.0000E+00  0.8000E+01
    -10.939  0.0000E+00  0.8000E+01
    -10.846  0.0000E+00  0.8000E+01
    -10.753  0.0000E+00  0.8000E+01
    -10.659  0.0000E+00  0.8000E+01
    -10.566  0.0000E+00  0.8000E+01
    -10.473  0.0000E+00  0.8000E+01
    -10.380  0.0000E+00  0.8000E+01
    -10.286  0.0000E+00  0.8000E+01
    -10.193  0.0000E+00  0.8000E+01
    -10.100  0.0000E+00  0.8000E+01
    -10.007  0.0000E+00  0.8000E+01
     -9.914  0.0000E+00  0.8000E+01
     -9.820  0.4764E-14  0.8000E+01
     -9.727  0.4366E-06  0.8000E+01
     -9.634  0.4674E-01  0.8004E+01
     -9.541  0.8860E+01  0.8830E+01
     -9.447  0.1238E+02  0.9985E+01
     -9.354  0.1654E+00  0.1000E+02
     -9.261  0.4519E-05  0.1000E+02
     -9.168  0.7338E-03  0.1000E+02
     -9.075  0.1915E+01  0.1018E+02
     -8.981  0.1743E+02  0.1180E+02
     -8.888  0.2107E+01  0.1200E+02
     -8.795  0.9173E-03  0.1200E+02
     -8.702  0.5577E-09  0.1200E+02
     -8.608  0.0000E+00  0.1200E+02
     -8.515  0.0000E+00  0.1200E+02
     -8.422  0.0000E+00  0.1200E+02
     -8.329  0.0000E+00  0.1200E+02
     -8.236  0.0000E+00  0.1200E+02
     -8.142  0.0000E+00  0.1200E+02
     -8.049  0.0000E+00  0.1200E+02
     -7.956  0.0000E+00  0.1200E+02
     -7.863  0.0000E+00  0.1200E+02
     -7.769  0.0000E+00  0.1200E+02
     -7.676  0.0000E+00  0.1200E+02
     -7.583  0.1730E-10  0.1200E+02
     -7.490  0.1022E-03  0.1200E+02
     -7.397  0.7862E+00  0.1207E+02
     -7.303  0.1640E+02  0.1360E+02
     -7.210  0.4261E+01  0.1400E+02
     -7.117  0.5329E-02  0.1400E+02
     -7.024  0.4421E-07  0.1400E+02
     -6.930  0.1093E-01  0.1400E+02
     -6.837  0.5531E+01  0.1452E+02
     -6.744  0.1541E+02  0.1595E+02
     -6.651  0.5019E+00  0.1600E+02
     -6.558  0.4020E-04  0.1600E+02
     -6.464  0.4102E-11  0.1600E+02
     -6.371  0.0000E+00  0.1600E+02
     -6.278  0.0000E+00  0.1600E+02
     -6.185  0.0000E+00  0.1600E+02
     -6.091  0.0000E+00  0.1600E+02
     -5.998  0.0000E+00  0.1600E+02
     -5.905  0.0000E+00  0.1600E+02
     -5.812  0.0000E+00  0.1600E+02
     -5.719  0.0000E+00  0.1600E+02
     -5.625  0.0000E+00  0.1600E+02
     -5.532  0.0000E+00  0.1600E+02
     -5.439  0.0000E+00  0.1600E+02
     -5.346  0.0000E+00  0.1600E+02
     -5.252  0.0000E+00  0.1600E+02
     -5.159  0.0000E+00  0.1600E+02
     -5.066  0.0000E+00  0.1600E+02
     -4.973  0.0000E+00  0.1600E+02
     -4.880  0.0000E+00  0.1600E+02
     -4.786  0.0000E+00  0.1600E+02
     -4.693  0.0000E+00  0.1600E+02
     -4.600  0.0000E+00  0.1600E+02
     -4.507  0.0000E+00  0.1600E+02
     -4.413  0.0000E+00  0.1600E+02
     -4.320  0.0000E+00  0.1600E+02
     -4.227  0.0000E+00  0.1600E+02
     -4.134  0.0000E+00  0.1600E+02
     -4.041  0.0000E+00  0.1600E+02
     -3.947  0.0000E+00  0.1600E+02
     -3.854  0.0000E+00  0.1600E+02
     -3.761  0.0000E+00  0.1600E+02
     -3.668  0.0000E+00  0.1600E+02
     -3.574  0.0000E+00  0.1600E+02
     -3.481  0.0000E+00  0.1600E+02
     -3.388  0.0000E+00  0.1600E+02
     -3.295  0.0000E+00  0.1600E+02
     -3.202  0.0000E+00  0.1600E+02
     -3.108  0.0000E+00  0.1600E+02
     -3.015  0.0000E+00  0.1600E+02
     -2.922  0.0000E+00  0.1600E+02
     -2.829  0.0000E+00  0.1600E+02
     -2.735  0.0000E+00  0.1600E+02
     -2.642  0.0000E+00  0.1600E+02
     -2.549  0.0000E+00  0.1600E+02
     -2.456  0.0000E+00  0.1600E+02
     -2.363  0.0000E+00  0.1600E+02
     -2.269  0.0000E+00  0.1600E+02
     -2.176  0.0000E+00  0.1600E+02
     -2.083  0.0000E+00  0.1600E+02
     -1.990  0.0000E+00  0.1600E+02
     -1.896  0.0000E+00  0.1600E+02
     -1.803  0.0000E+00  0.1600E+02
     -1.710  0.0000E+00  0.1600E+02
     -1.617  0.9277E-09  0.1600E+02
     -1.524  0.1256E-02  0.1600E+02
     -1.430  0.2404E+01  0.1622E+02
     -1.337  0.1738E+02  0.1784E+02
     -1.244  0.1665E+01  0.1800E+02
     -1.151  0.5309E-03  0.1800E+02
     -1.057  0.2318E-09  0.1800E+02
     -0.964  0.3120E-12  0.1800E+02
     -0.871  0.7339E-05  0.1800E+02
     -0.778  0.2130E+00  0.1802E+02
     -0.685  0.1311E+02  0.1924E+02
     -0.591  0.8100E+01  0.2000E+02
     -0.498  0.3471E-01  0.2000E+02
     -0.405  0.2564E-06  0.2000E+02
     -0.312  0.2382E-14  0.2000E+02
     -0.218  0.0000E+00  0.2000E+02
     -0.125  0.2273E-11  0.2000E+02
     -0.032  0.2732E-04  0.2000E+02
      0.061  0.4148E+00  0.2004E+02
      0.154  0.1493E+02  0.2143E+02
      0.248  0.6092E+01  0.2200E+02
      0.341  0.2050E-01  0.2200E+02
      0.434  0.4352E+01  0.2241E+02
      0.527  0.1630E+02  0.2393E+02
      0.621  0.7934E+00  0.2400E+02
      0.714  0.1133E-03  0.2400E+02
      0.807  0.2274E-10  0.2400E+02
      0.900  0.0000E+00  0.2400E+02
      0.993  0.0000E+00  0.2400E+02
      1.087  0.0000E+00  0.2400E+02
      1.180  0.0000E+00  0.2400E+02
      1.273  0.0000E+00  0.2400E+02
      1.366  0.0000E+00  0.2400E+02
      1.460  0.0000E+00  0.2400E+02
      1.553  0.0000E+00  0.2400E+02
      1.646  0.0000E+00  0.2400E+02
      1.739  0.0000E+00  0.2400E+02
