<?xml version="1.0" encoding="ISO-8859-1"?>
<modeling>
 <generator>
  <i name="program" type="string">vasp </i>
  <i name="version" type="string">5.4.4.18Apr17-6-g9f103f2a35  </i>
  <i name="subversion" type="string">(build Nov 25 2019 16:34:31) complex            parallel </i>
  <i name="platform" type="string">LinuxIFC </i>
  <i name="date" type="string">2021 04 06 </i>
  <i name="time" type="string">12:18:03 </i>
 </generator>
 <incar>
  <i type="string" name="PREC">a</i>
  <i type="string" name="ALGO">fast</i>
  <i name="AMIN">      0.00500000</i>
  <i type="int" name="NELM">   300</i>
  <i type="int" name="NELMIN">     4</i>
  <i type="int" name="IBRION">    -1</i>
  <i name="EDIFF">      0.00000001</i>
  <i type="int" name="NSW">     0</i>
  <i type="int" name="ISIF">     2</i>
  <i name="ENCUT">   1500.00000000</i>
  <i type="logical" name="LREAL"> F  </i>
  <i type="int" name="ISMEAR">     0</i>
  <i name="SIGMA">      0.05000000</i>
  <i name="KSPACING">      0.50000000</i>
  <i type="logical" name="KGAMMA"> F  </i>
  <i name="PSTRESS">      0.00000000</i>
  <i type="logical" name="LWAVE"> F  </i>
  <i type="logical" name="LCHARG"> F  </i>
  <v type="int" name="KPOINT_BSE">    -1     0     0     0</v>
  <i type="int" name="NELM">   300</i>
 </incar>
 <structure name="primitive_cell" >
  <crystal>
   <varray name="basis" >
    <v>      30.00000000       0.00000000       0.00000000 </v>
    <v>       0.00000000      10.00000000       0.00000000 </v>
    <v>       0.00000000       0.00000000      10.00000000 </v>
   </varray>
   <i name="volume">   3000.00000000 </i>
   <varray name="rec_basis" >
    <v>       0.03333333       0.00000000       0.00000000 </v>
    <v>       0.00000000       0.10000000       0.00000000 </v>
    <v>       0.00000000       0.00000000       0.10000000 </v>
   </varray>
  </crystal>
  <varray name="positions" >
   <v>       0.10853563       0.15710957       0.17600000 </v>
   <v>       0.07513922       0.16672783       0.17649328 </v>
   <v>       0.11921080       0.25541218       0.17439231 </v>
   <v>      -0.04486896       0.15710957       0.17600000 </v>
   <v>      -0.05375150       0.09907990       0.09607226 </v>
   <v>      -0.05387697       0.09941802       0.25610440 </v>
  </varray>
 </structure>
 <varray name="primitive_index" >
  <v type="int" >        1 </v>
  <v type="int" >        4 </v>
  <v type="int" >        3 </v>
  <v type="int" >        2 </v>
  <v type="int" >        6 </v>
  <v type="int" >        5 </v>
 </varray>
 <kpoints>
  <generation param="Monkhorst-Pack">
   <v type="int" name="divisions">       1        2        2 </v>
   <v name="usershift">      0.00000000       0.00000000       0.00000000 </v>
   <v name="genvec1">      1.00000000       0.00000000       0.00000000 </v>
   <v name="genvec2">      0.00000000       0.50000000       0.00000000 </v>
   <v name="genvec3">      0.00000000       0.00000000       0.50000000 </v>
   <v name="shift">      0.00000000       0.50000000       0.50000000 </v>
  </generation>
  <varray name="kpointlist" >
   <v>       0.00000000       0.25000000       0.25000000 </v>
   <v>       0.00000000      -0.25000000       0.25000000 </v>
  </varray>
  <varray name="weights" >
   <v>       0.50000000 </v>
   <v>       0.50000000 </v>
  </varray>
 </kpoints>
 <parameters>
  <separator name="general" >
   <i type="string" name="SYSTEM">unknown system</i>
   <i type="logical" name="LCOMPAT"> F  </i>
  </separator>
  <separator name="electronic" >
   <i type="string" name="PREC">a</i>
   <i name="ENMAX">   1500.00000000</i>
   <i name="ENAUG">   1000.00000000</i>
   <i name="EDIFF">      0.00000001</i>
   <i type="int" name="IALGO">    68</i>
   <i type="int" name="IWAVPR">    10</i>
   <i type="int" name="NBANDS">    12</i>
   <i name="NELECT">     16.00000000</i>
   <i type="int" name="TURBO">     0</i>
   <i type="int" name="IRESTART">     0</i>
   <i type="int" name="NREBOOT">     0</i>
   <i type="int" name="NMIN">     0</i>
   <i name="EREF">      0.00000000</i>
   <separator name="electronic smearing" >
    <i type="int" name="ISMEAR">     0</i>
    <i name="SIGMA">      0.05000000</i>
    <i name="KSPACING">      0.50000000</i>
    <i type="logical" name="KGAMMA"> F  </i>
   </separator>
   <separator name="electronic projectors" >
    <i type="logical" name="LREAL"> F  </i>
    <v name="ROPT">      0.00000000      0.00000000</v>
    <i type="int" name="LMAXPAW">  -100</i>
    <i type="int" name="LMAXMIX">     2</i>
    <i type="logical" name="NLSPLINE"> F  </i>
   </separator>
   <separator name="electronic startup" >
    <i type="int" name="ISTART">     0</i>
    <i type="int" name="ICHARG">     2</i>
    <i type="int" name="INIWAV">     1</i>
   </separator>
   <separator name="electronic spin" >
    <i type="int" name="ISPIN">     1</i>
    <i type="logical" name="LNONCOLLINEAR"> F  </i>
    <v name="MAGMOM">      1.00000000      1.00000000      1.00000000      1.00000000      1.00000000      1.00000000</v>
    <i name="NUPDOWN">     -1.00000000</i>
    <i type="logical" name="LSORBIT"> F  </i>
    <v name="SAXIS">      0.00000000      0.00000000      1.00000000</v>
    <i type="logical" name="LSPIRAL"> F  </i>
    <v name="QSPIRAL">      0.00000000      0.00000000      0.00000000</v>
    <i type="logical" name="LZEROZ"> F  </i>
   </separator>
   <separator name="electronic exchange-correlation" >
    <i type="logical" name="LASPH"> F  </i>
    <i type="logical" name="LMETAGGA"> F  </i>
   </separator>
   <separator name="electronic convergence" >
    <i type="int" name="NELM">   300</i>
    <i type="int" name="NELMDL">     0</i>
    <i type="int" name="NELMIN">     4</i>
    <i name="ENINI">   1500.00000000</i>
    <separator name="electronic convergence detail" >
     <i type="logical" name="LDIAG"> T  </i>
     <i type="logical" name="LSUBROT"> F  </i>
     <i name="WEIMIN">      0.00000000</i>
     <i name="EBREAK">      0.00000000</i>
     <i name="DEPER">      0.30000000</i>
     <i type="int" name="NRMM">     4</i>
     <i name="TIME">      0.40000000</i>
    </separator>
   </separator>
   <separator name="electronic mixer" >
    <i name="AMIX">      0.40000000</i>
    <i name="BMIX">      1.00000000</i>
    <i name="AMIN">      0.00500000</i>
    <i name="AMIX_MAG">      1.60000000</i>
    <i name="BMIX_MAG">      1.00000000</i>
    <separator name="electronic mixer details" >
     <i type="int" name="IMIX">     4</i>
     <i type="logical" name="MIXFIRST"> F  </i>
     <i type="int" name="MAXMIX">   -45</i>
     <i name="WC">    100.00000000</i>
     <i type="int" name="INIMIX">     1</i>
     <i type="int" name="MIXPRE">     1</i>
     <i type="int" name="MREMOVE">     5</i>
    </separator>
   </separator>
   <separator name="electronic dipolcorrection" >
    <i type="logical" name="LDIPOL"> F  </i>
    <i type="logical" name="LMONO"> F  </i>
    <i type="int" name="IDIPOL">     0</i>
    <i name="EPSILON">      1.00000000</i>
    <v name="DIPOL">   -100.00000000   -100.00000000   -100.00000000</v>
    <i name="EFIELD">      0.00000000</i>
   </separator>
  </separator>
  <separator name="grids" >
   <i type="int" name="NGX">   384</i>
   <i type="int" name="NGY">   126</i>
   <i type="int" name="NGZ">   126</i>
   <i type="int" name="NGXF">   768</i>
   <i type="int" name="NGYF">   252</i>
   <i type="int" name="NGZF">   252</i>
   <i type="logical" name="ADDGRID"> F  </i>
  </separator>
  <separator name="ionic" >
   <i type="int" name="NSW">     0</i>
   <i type="int" name="IBRION">    -1</i>
   <i type="int" name="MDALGO">     0</i>
   <i type="int" name="ISIF">     2</i>
   <i name="PSTRESS">      0.00000000</i>
   <i name="EDIFFG">      0.00000010</i>
   <i type="int" name="NFREE">     0</i>
   <i name="POTIM">      0.50000000</i>
   <i name="SMASS">     -3.00000000</i>
   <i name="SCALEE">      1.00000000</i>
  </separator>
  <separator name="ionic md" >
   <i name="TEBEG">      0.00010000</i>
   <i name="TEEND">      0.00010000</i>
   <i type="int" name="NBLOCK">     1</i>
   <i type="int" name="KBLOCK">     1</i>
   <i type="int" name="NPACO">   256</i>
   <i name="APACO">     16.00000000</i>
  </separator>
  <separator name="symmetry" >
   <i type="int" name="ISYM">     2</i>
   <i name="SYMPREC">      0.00001000</i>
  </separator>
  <separator name="dos" >
   <i type="int" name="LORBIT">     0</i>
   <v name="RWIGS">     -1.00000000     -1.00000000</v>
   <i type="int" name="NEDOS">   301</i>
   <i name="EMIN">     10.00000000</i>
   <i name="EMAX">    -10.00000000</i>
   <i name="EFERMI">      0.00000000</i>
  </separator>
  <separator name="writing" >
   <i type="int" name="NWRITE">     2</i>
   <i type="logical" name="LWAVE"> F  </i>
   <i type="logical" name="LDOWNSAMPLE"> F  </i>
   <i type="logical" name="LCHARG"> F  </i>
   <i type="logical" name="LPARD"> F  </i>
   <i type="logical" name="LVTOT"> F  </i>
   <i type="logical" name="LVHAR"> F  </i>
   <i type="logical" name="LELF"> F  </i>
   <i type="logical" name="LOPTICS"> F  </i>
   <v name="STM">      0.00000000      0.00000000      0.00000000      0.00000000      0.00000000      0.00000000      0.00000000</v>
  </separator>
  <separator name="performance" >
   <i type="int" name="NPAR">     2</i>
   <i type="int" name="NSIM">     4</i>
   <i type="int" name="NBLK">    -1</i>
   <i type="logical" name="LPLANE"> T  </i>
   <i type="logical" name="LSCALAPACK"> T  </i>
   <i type="logical" name="LSCAAWARE"> F  </i>
   <i type="logical" name="LSCALU"> F  </i>
   <i type="logical" name="LASYNC"> F  </i>
   <i type="logical" name="LORBITALREAL"> F  </i>
  </separator>
  <separator name="miscellaneous" >
   <i type="int" name="IDIOT">     3</i>
   <i type="int" name="ISPECIAL">     0</i>
   <i type="logical" name="LMUSIC"> F  </i>
   <v name="POMASS">     16.00000000      1.00000000</v>
   <v name="DARWINR">      0.00000000      0.00000000</v>
   <v name="DARWINV">      1.00000000      1.00000000</v>
   <i type="logical" name="LCORR"> T  </i>
  </separator>
  <i type="logical" name="GGA_COMPAT"> T  </i>
  <i type="logical" name="LBERRY"> F  </i>
  <i type="int" name="ICORELEVEL">     0</i>
  <i type="logical" name="LDAU"> F  </i>
  <i type="int" name="I_CONSTRAINED_M">     0</i>
  <separator name="electronic exchange-correlation" >
   <i type="string" name="GGA">--</i>
   <i type="int" name="VOSKOWN">     0</i>
   <i type="logical" name="LHFCALC"> F  </i>
   <i type="string" name="PRECFOCK"></i>
   <i type="logical" name="LSYMGRAD"> F  </i>
   <i type="logical" name="LHFONE"> F  </i>
   <i type="logical" name="LRHFCALC"> F  </i>
   <i type="logical" name="LTHOMAS"> F  </i>
   <i type="logical" name="LMODELHF"> F  </i>
   <i name="ENCUT4O">     -1.00000000</i>
   <i type="int" name="EXXOEP">     0</i>
   <i type="int" name="FOURORBIT">     0</i>
   <i name="AEXX">      0.00000000</i>
   <i name="HFALPHA">      0.00000000</i>
   <i name="MCALPHA">      0.00000000</i>
   <i name="ALDAX">      1.00000000</i>
   <i name="AGGAX">      1.00000000</i>
   <i name="ALDAC">      1.00000000</i>
   <i name="AGGAC">      1.00000000</i>
   <i type="int" name="NKREDX">     1</i>
   <i type="int" name="NKREDY">     1</i>
   <i type="int" name="NKREDZ">     1</i>
   <i type="logical" name="SHIFTRED"> F  </i>
   <i type="logical" name="ODDONLY"> F  </i>
   <i type="logical" name="EVENONLY"> F  </i>
   <i type="int" name="LMAXFOCK">     0</i>
   <i type="int" name="NMAXFOCKAE">     0</i>
   <i type="logical" name="LFOCKAEDFT"> F  </i>
   <i name="HFSCREEN">      0.00000000</i>
   <i name="HFSCREENC">      0.00000000</i>
   <i type="int" name="NBANDSGWLOW">     0</i>
  </separator>
  <separator name="vdW DFT" >
   <i type="logical" name="LUSE_VDW"> F  </i>
   <i name="Zab_VDW">     -0.84910000</i>
   <i name="PARAM1">      0.12340000</i>
   <i name="PARAM2">      1.00000000</i>
   <i name="PARAM3">      0.00000000</i>
  </separator>
  <separator name="model GW" >
   <i type="int" name="MODEL_GW">     0</i>
   <i name="MODEL_EPS0">    300.00000000</i>
   <i name="MODEL_ALPHA">      1.00000000</i>
  </separator>
  <separator name="linear response parameters" >
   <i type="logical" name="LEPSILON"> F  </i>
   <i type="logical" name="LRPA"> F  </i>
   <i type="logical" name="LNABLA"> F  </i>
   <i type="logical" name="LVEL"> F  </i>
   <i type="int" name="KINTER">     0</i>
   <i name="CSHIFT">      0.10000000</i>
   <i name="OMEGAMAX">     -1.00000000</i>
   <i name="DEG_THRESHOLD">      0.00200000</i>
   <i name="RTIME">     -0.10000000</i>
   <i name="WPLASMAI">      0.00000000</i>
   <v name="DFIELD">      0.00000000      0.00000000      0.00000000</v>
   <v name="WPLASMA">      0.00000000      0.00000000      0.00000000      0.00000000      0.00000000      0.00000000      0.00000000      0.00000000      0.00000000</v>
  </separator>
  <separator name="orbital magnetization" >
   <i type="logical" name="NUCIND"> F  </i>
   <v name="MAGPOS">      0.00000000      0.00000000      0.00000000</v>
   <i type="logical" name="LNICSALL"> T  </i>
   <i type="logical" name="ORBITALMAG"> F  </i>
   <i type="logical" name="LMAGBLOCH"> F  </i>
   <i type="logical" name="LCHIMAG"> F  </i>
   <i type="logical" name="LGAUGE"> T  </i>
   <i type="int" name="MAGATOM">     0</i>
   <v name="MAGDIPOL">      0.00000000      0.00000000      0.00000000</v>
   <v name="AVECCONST">      0.00000000      0.00000000      0.00000000</v>
  </separator>
  <separator name="response functions" >
   <i type="logical" name="LADDER"> F  </i>
   <i type="logical" name="LRPAFORCE"> F  </i>
   <i type="logical" name="LFXC"> F  </i>
   <i type="logical" name="LHARTREE"> T  </i>
   <i type="int" name="IBSE">     0</i>
   <v type="int" name="KPOINT">    -1     0     0     0</v>
   <i type="logical" name="LTCTE"> F  </i>
   <i type="logical" name="LTETE"> F  </i>
   <i type="logical" name="LTRIPLET"> F  </i>
   <i type="logical" name="LFXCEPS"> F  </i>
   <i type="logical" name="LFXHEG"> F  </i>
   <i type="int" name="NATURALO">     2</i>
   <i type="logical" name="L2ORDER"> F  </i>
   <i type="logical" name="LMP2LT"> F  </i>
   <i type="logical" name="LUSEW"> F  </i>
   <i name="ENCUTGW">     -2.00000000</i>
   <i name="ENCUTGWSOFT">     -2.00000000</i>
   <i name="ENCUTLF">     -1.00000000</i>
   <i type="int" name="LMAXMP2">    -1</i>
   <i name="SCISSOR">      0.00000000</i>
   <i type="int" name="NOMEGA">     0</i>
   <i type="int" name="NOMEGAR">     0</i>
   <i type="int" name="NBANDSGW">    -1</i>
   <i type="int" name="NBANDSO">    -1</i>
   <i type="int" name="NBANDSV">    -1</i>
   <i type="int" name="NELM">   300</i>
   <i type="int" name="NELMHF">     1</i>
   <i type="int" name="DIM">     3</i>
   <i type="int" name="ANTIRES">     0</i>
   <i name="OMEGAMAX">    -30.00000000</i>
   <i name="OMEGAMIN">    -30.00000000</i>
   <i name="OMEGATL">   -200.00000000</i>
   <i type="int" name="OMEGAGRID">   140</i>
   <i name="CSHIFT">     -0.10000000</i>
   <i type="logical" name="SELFENERGY"> F  </i>
   <i type="logical" name="LSPECTRAL"> F  </i>
   <i type="logical" name="LSPECTRALGW"> F  </i>
   <i type="logical" name="LSINGLES"> F  </i>
   <i type="logical" name="LFERMIGW"> F  </i>
   <i type="logical" name="ODDONLYGW"> F  </i>
   <i type="logical" name="EVENONLYGW"> F  </i>
   <i type="int" name="NKREDLFX">     1</i>
   <i type="int" name="NKREDLFY">     1</i>
   <i type="int" name="NKREDLFZ">     1</i>
   <i type="int" name="MAXMEM">  2800</i>
   <i type="int" name="TELESCOPE">     0</i>
   <i type="int" name="TAUPAR">     1</i>
   <i type="int" name="OMEGAPAR">    -1</i>
   <i name="LAMBDA">      1.00000000</i>
  </separator>
  <separator name="External order field" >
   <i name="OFIELD_KAPPA">      0.00000000</i>
   <v name="OFIELD_K">      0.00000000      0.00000000      0.00000000</v>
   <i name="OFIELD_Q6_NEAR">      0.00000000</i>
   <i name="OFIELD_Q6_FAR">      0.00000000</i>
   <i name="OFIELD_A">      0.00000000</i>
  </separator>
 </parameters>
 <atominfo>
  <atoms>       6 </atoms>
  <types>       2 </types>
  <array name="atoms" >
   <dimension dim="1">ion</dimension>
   <field type="string">element</field>
   <field type="int">atomtype</field>
   <set>
    <rc><c>O </c><c>   1</c></rc>
    <rc><c>O </c><c>   1</c></rc>
    <rc><c>H </c><c>   2</c></rc>
    <rc><c>H </c><c>   2</c></rc>
    <rc><c>H </c><c>   2</c></rc>
    <rc><c>H </c><c>   2</c></rc>
   </set>
  </array>
  <array name="atomtypes" >
   <dimension dim="1">type</dimension>
   <field type="int">atomspertype</field>
   <field type="string">element</field>
   <field>mass</field>
   <field>valence</field>
   <field type="string">pseudopotential</field>
   <set>
    <rc><c>   2</c><c>O </c><c>     16.00000000</c><c>      6.00000000</c><c>  PAW_PBE O_h 06Feb2004                 </c></rc>
    <rc><c>   4</c><c>H </c><c>      1.00000000</c><c>      1.00000000</c><c>  PAW_PBE H_h 06Feb2004                 </c></rc>
   </set>
  </array>
 </atominfo>
 <structure name="initialpos" >
  <crystal>
   <varray name="basis" >
    <v>      30.00000000       0.00000000       0.00000000 </v>
    <v>       0.00000000      10.00000000       0.00000000 </v>
    <v>       0.00000000       0.00000000      10.00000000 </v>
   </varray>
   <i name="volume">   3000.00000000 </i>
   <varray name="rec_basis" >
    <v>       0.03333333       0.00000000       0.00000000 </v>
    <v>       0.00000000       0.10000000       0.00000000 </v>
    <v>       0.00000000       0.00000000       0.10000000 </v>
   </varray>
  </crystal>
  <varray name="positions" >
   <v>       0.10853563       0.15710957       0.17600000 </v>
   <v>       0.95513104       0.15710957       0.17600000 </v>
   <v>       0.11921080       0.25541218       0.17439231 </v>
   <v>       0.07513922       0.16672783       0.17649328 </v>
   <v>       0.94612303       0.09941802       0.25610440 </v>
   <v>       0.94624850       0.09907990       0.09607226 </v>
  </varray>
 </structure>
 <calculation>
  <scstep>
   <time name="dav">    3.21    3.24</time>
   <time name="total">    5.88    5.95</time>
   <energy>
    <i name="alphaZ">      0.21758540 </i>
    <i name="ewald">    378.12240227 </i>
    <i name="hartreedc">  -1104.06220340 </i>
    <i name="XCdc">     60.59783531 </i>
    <i name="pawpsdc">    697.41634940 </i>
    <i name="pawaedc">   -699.85762974 </i>
    <i name="eentropy">     -0.00000001 </i>
    <i name="bandstr">    -95.19571488 </i>
    <i name="atom">    914.70366869 </i>
    <i name="e_fr_energy">    151.94229305 </i>
    <i name="e_wo_entrp">    151.94229306 </i>
    <i name="e_0_energy">    151.94229306 </i>
   </energy>
  </scstep>
  <scstep>
   <time name="dav">    4.35    4.41</time>
   <time name="total">    4.35    4.41</time>
   <energy>
    <i name="e_fr_energy">     50.43720711 </i>
    <i name="e_wo_entrp">     50.43720711 </i>
    <i name="e_0_energy">     50.43720711 </i>
   </energy>
  </scstep>
  <scstep>
   <time name="dav">    4.06    4.08</time>
   <time name="total">    4.06    4.08</time>
   <energy>
    <i name="e_fr_energy">    -23.48088371 </i>
    <i name="e_wo_entrp">    -23.48088371 </i>
    <i name="e_0_energy">    -23.48088371 </i>
   </energy>
  </scstep>
  <scstep>
   <time name="dav">    3.18    3.20</time>
   <time name="total">    3.18    3.20</time>
   <energy>
    <i name="e_fr_energy">    -31.80097364 </i>
    <i name="e_wo_entrp">    -31.80097364 </i>
    <i name="e_0_energy">    -31.80097364 </i>
   </energy>
  </scstep>
  <scstep>
   <time name="dav">    3.48    3.50</time>
   <time name="total">    4.01    4.03</time>
   <energy>
    <i name="e_fr_energy">    -31.99568970 </i>
    <i name="e_wo_entrp">    -31.99568970 </i>
    <i name="e_0_energy">    -31.99568970 </i>
   </energy>
  </scstep>
  <scstep>
   <time name="diag">    0.67    0.67</time>
   <time name="diis">    3.63    3.65</time>
   <time name="orth">    0.02    0.02</time>
   <time name="total">    7.52    7.56</time>
   <energy>
    <i name="e_fr_energy">    -28.63303988 </i>
    <i name="e_wo_entrp">    -28.63303988 </i>
    <i name="e_0_energy">    -28.63303988 </i>
   </energy>
  </scstep>
  <scstep>
   <time name="diag">    0.66    0.66</time>
   <time name="diis">    4.25    4.28</time>
   <time name="orth">    0.02    0.02</time>
   <time name="total">    8.16    8.21</time>
   <energy>
    <i name="e_fr_energy">    -28.58890306 </i>
    <i name="e_wo_entrp">    -28.58890306 </i>
    <i name="e_0_energy">    -28.58890306 </i>
   </energy>
  </scstep>
  <scstep>
   <time name="diag">    0.66    0.66</time>
   <time name="diis">    3.47    3.49</time>
   <time name="orth">    0.02    0.02</time>
   <time name="total">    7.46    7.57</time>
   <energy>
    <i name="e_fr_energy">    -29.51414773 </i>
    <i name="e_wo_entrp">    -29.51414773 </i>
    <i name="e_0_energy">    -29.51414773 </i>
   </energy>
  </scstep>
  <scstep>
   <time name="diag">    0.66    0.67</time>
   <time name="diis">    3.59    3.61</time>
   <time name="orth">    0.02    0.02</time>
   <time name="total">    7.53    7.58</time>
   <energy>
    <i name="e_fr_energy">    -28.36771789 </i>
    <i name="e_wo_entrp">    -28.36771789 </i>
    <i name="e_0_energy">    -28.36771789 </i>
   </energy>
  </scstep>
  <scstep>
   <time name="diag">    0.66    0.66</time>
   <time name="diis">    4.21    4.23</time>
   <time name="orth">    0.02    0.02</time>
   <time name="total">    8.13    8.18</time>
   <energy>
    <i name="e_fr_energy">    -28.37790199 </i>
    <i name="e_wo_entrp">    -28.37790199 </i>
    <i name="e_0_energy">    -28.37790199 </i>
   </energy>
  </scstep>
  <scstep>
   <time name="diag">    0.66    0.66</time>
   <time name="diis">    3.62    3.63</time>
   <time name="orth">    0.02    0.02</time>
   <time name="total">    7.58    7.60</time>
   <energy>
    <i name="e_fr_energy">    -28.37549699 </i>
    <i name="e_wo_entrp">    -28.37549699 </i>
    <i name="e_0_energy">    -28.37549699 </i>
   </energy>
  </scstep>
  <scstep>
   <time name="diag">    0.66    0.66</time>
   <time name="diis">    3.41    3.42</time>
   <time name="orth">    0.02    0.02</time>
   <time name="total">    7.36    7.38</time>
   <energy>
    <i name="e_fr_energy">    -28.36748276 </i>
    <i name="e_wo_entrp">    -28.36748276 </i>
    <i name="e_0_energy">    -28.36748276 </i>
   </energy>
  </scstep>
  <scstep>
   <time name="diag">    0.67    0.67</time>
   <time name="diis">    4.29    4.29</time>
   <time name="orth">    0.02    0.02</time>
   <time name="total">    8.24    8.25</time>
   <energy>
    <i name="e_fr_energy">    -28.36943679 </i>
    <i name="e_wo_entrp">    -28.36943679 </i>
    <i name="e_0_energy">    -28.36943679 </i>
   </energy>
  </scstep>
  <scstep>
   <time name="diag">    0.66    0.66</time>
   <time name="diis">    3.56    3.57</time>
   <time name="orth">    0.02    0.02</time>
   <time name="total">    7.51    7.53</time>
   <energy>
    <i name="e_fr_energy">    -28.37614941 </i>
    <i name="e_wo_entrp">    -28.37614941 </i>
    <i name="e_0_energy">    -28.37614941 </i>
   </energy>
  </scstep>
  <scstep>
   <time name="diag">    0.66    0.66</time>
   <time name="diis">    3.50    3.51</time>
   <time name="orth">    0.02    0.02</time>
   <time name="total">    7.41    7.44</time>
   <energy>
    <i name="e_fr_energy">    -28.37740726 </i>
    <i name="e_wo_entrp">    -28.37740726 </i>
    <i name="e_0_energy">    -28.37740726 </i>
   </energy>
  </scstep>
  <scstep>
   <time name="diag">    0.66    0.66</time>
   <time name="diis">    3.96    4.10</time>
   <time name="orth">    0.03    0.03</time>
   <time name="total">    7.85    8.00</time>
   <energy>
    <i name="e_fr_energy">    -28.37795913 </i>
    <i name="e_wo_entrp">    -28.37795913 </i>
    <i name="e_0_energy">    -28.37795913 </i>
   </energy>
  </scstep>
  <scstep>
   <time name="diag">    0.66    0.66</time>
   <time name="diis">    3.30    3.30</time>
   <time name="orth">    0.02    0.02</time>
   <time name="total">    7.19    7.21</time>
   <energy>
    <i name="e_fr_energy">    -28.38054205 </i>
    <i name="e_wo_entrp">    -28.38054205 </i>
    <i name="e_0_energy">    -28.38054205 </i>
   </energy>
  </scstep>
  <scstep>
   <time name="diag">    0.66    0.66</time>
   <time name="diis">    3.65    3.65</time>
   <time name="orth">    0.02    0.02</time>
   <time name="total">    7.54    7.55</time>
   <energy>
    <i name="e_fr_energy">    -28.38055245 </i>
    <i name="e_wo_entrp">    -28.38055245 </i>
    <i name="e_0_energy">    -28.38055245 </i>
   </energy>
  </scstep>
  <scstep>
   <time name="diag">    0.67    0.67</time>
   <time name="diis">    3.35    3.35</time>
   <time name="orth">    0.02    0.02</time>
   <time name="total">    7.25    7.26</time>
   <energy>
    <i name="e_fr_energy">    -28.38019639 </i>
    <i name="e_wo_entrp">    -28.38019639 </i>
    <i name="e_0_energy">    -28.38019639 </i>
   </energy>
  </scstep>
  <scstep>
   <time name="diag">    0.67    0.67</time>
   <time name="diis">    4.26    4.26</time>
   <time name="orth">    0.02    0.02</time>
   <time name="total">    8.16    8.17</time>
   <energy>
    <i name="e_fr_energy">    -28.38024863 </i>
    <i name="e_wo_entrp">    -28.38024863 </i>
    <i name="e_0_energy">    -28.38024863 </i>
   </energy>
  </scstep>
  <scstep>
   <time name="diag">    0.67    0.67</time>
   <time name="diis">    3.74    3.74</time>
   <time name="orth">    0.02    0.02</time>
   <time name="total">    7.69    7.69</time>
   <energy>
    <i name="e_fr_energy">    -28.38009498 </i>
    <i name="e_wo_entrp">    -28.38009498 </i>
    <i name="e_0_energy">    -28.38009498 </i>
   </energy>
  </scstep>
  <scstep>
   <time name="diag">    0.66    0.66</time>
   <time name="diis">    3.28    3.28</time>
   <time name="orth">    0.02    0.02</time>
   <time name="total">    7.22    7.26</time>
   <energy>
    <i name="e_fr_energy">    -28.37959964 </i>
    <i name="e_wo_entrp">    -28.37959964 </i>
    <i name="e_0_energy">    -28.37959964 </i>
   </energy>
  </scstep>
  <scstep>
   <time name="diag">    0.66    0.66</time>
   <time name="diis">    3.73    3.73</time>
   <time name="orth">    0.02    0.02</time>
   <time name="total">    7.68    7.70</time>
   <energy>
    <i name="e_fr_energy">    -28.37965684 </i>
    <i name="e_wo_entrp">    -28.37965684 </i>
    <i name="e_0_energy">    -28.37965684 </i>
   </energy>
  </scstep>
  <scstep>
   <time name="diag">    0.67    0.67</time>
   <time name="diis">    3.56    3.60</time>
   <time name="orth">    0.02    0.02</time>
   <time name="total">    7.51    7.57</time>
   <energy>
    <i name="e_fr_energy">    -28.38010851 </i>
    <i name="e_wo_entrp">    -28.38010851 </i>
    <i name="e_0_energy">    -28.38010851 </i>
   </energy>
  </scstep>
  <scstep>
   <time name="diag">    0.66    0.66</time>
   <time name="diis">    3.71    3.72</time>
   <time name="orth">    0.02    0.02</time>
   <time name="total">    7.68    7.69</time>
   <energy>
    <i name="e_fr_energy">    -28.38007077 </i>
    <i name="e_wo_entrp">    -28.38007077 </i>
    <i name="e_0_energy">    -28.38007077 </i>
   </energy>
  </scstep>
  <scstep>
   <time name="diag">    0.66    0.67</time>
   <time name="diis">    2.99    2.99</time>
   <time name="orth">    0.02    0.02</time>
   <time name="total">    6.92    6.94</time>
   <energy>
    <i name="e_fr_energy">    -28.38034908 </i>
    <i name="e_wo_entrp">    -28.38034908 </i>
    <i name="e_0_energy">    -28.38034908 </i>
   </energy>
  </scstep>
  <scstep>
   <time name="diag">    0.67    0.67</time>
   <time name="diis">    3.73    3.73</time>
   <time name="orth">    0.02    0.02</time>
   <time name="total">    7.69    7.70</time>
   <energy>
    <i name="e_fr_energy">    -28.38065426 </i>
    <i name="e_wo_entrp">    -28.38065426 </i>
    <i name="e_0_energy">    -28.38065426 </i>
   </energy>
  </scstep>
  <scstep>
   <time name="diag">    0.66    0.66</time>
   <time name="diis">    3.30    3.30</time>
   <time name="orth">    0.02    0.02</time>
   <time name="total">    7.28    7.29</time>
   <energy>
    <i name="e_fr_energy">    -28.38101997 </i>
    <i name="e_wo_entrp">    -28.38101997 </i>
    <i name="e_0_energy">    -28.38101997 </i>
   </energy>
  </scstep>
  <scstep>
   <time name="diag">    0.67    0.67</time>
   <time name="diis">    3.82    3.82</time>
   <time name="orth">    0.02    0.02</time>
   <time name="total">    7.82    7.82</time>
   <energy>
    <i name="e_fr_energy">    -28.38135255 </i>
    <i name="e_wo_entrp">    -28.38135255 </i>
    <i name="e_0_energy">    -28.38135255 </i>
   </energy>
  </scstep>
  <scstep>
   <time name="diag">    0.67    0.67</time>
   <time name="diis">    3.42    3.42</time>
   <time name="orth">    0.02    0.02</time>
   <time name="total">    7.45    7.45</time>
   <energy>
    <i name="e_fr_energy">    -28.38156531 </i>
    <i name="e_wo_entrp">    -28.38156531 </i>
    <i name="e_0_energy">    -28.38156531 </i>
   </energy>
  </scstep>
  <scstep>
   <time name="diag">    0.67    0.67</time>
   <time name="diis">    3.72    3.72</time>
   <time name="orth">    0.02    0.02</time>
   <time name="total">    7.75    7.76</time>
   <energy>
    <i name="e_fr_energy">    -28.38172007 </i>
    <i name="e_wo_entrp">    -28.38172007 </i>
    <i name="e_0_energy">    -28.38172007 </i>
   </energy>
  </scstep>
  <scstep>
   <time name="diag">    0.68    0.68</time>
   <time name="diis">    3.58    3.60</time>
   <time name="orth">    0.02    0.02</time>
   <time name="total">    7.62    7.65</time>
   <energy>
    <i name="e_fr_energy">    -28.38175690 </i>
    <i name="e_wo_entrp">    -28.38175690 </i>
    <i name="e_0_energy">    -28.38175690 </i>
   </energy>
  </scstep>
  <scstep>
   <time name="diag">    0.67    0.68</time>
   <time name="diis">    3.17    3.17</time>
   <time name="orth">    0.02    0.02</time>
   <time name="total">    7.20    7.22</time>
   <energy>
    <i name="e_fr_energy">    -28.38179997 </i>
    <i name="e_wo_entrp">    -28.38179997 </i>
    <i name="e_0_energy">    -28.38179997 </i>
   </energy>
  </scstep>
  <scstep>
   <time name="diag">    0.67    0.67</time>
   <time name="diis">    4.05    4.07</time>
   <time name="orth">    0.02    0.02</time>
   <time name="total">    8.14    8.17</time>
   <energy>
    <i name="e_fr_energy">    -28.38180722 </i>
    <i name="e_wo_entrp">    -28.38180722 </i>
    <i name="e_0_energy">    -28.38180722 </i>
   </energy>
  </scstep>
  <scstep>
   <time name="diag">    0.67    0.67</time>
   <time name="diis">    3.43    3.44</time>
   <time name="orth">    0.02    0.02</time>
   <time name="total">    7.53    7.55</time>
   <energy>
    <i name="e_fr_energy">    -28.38181405 </i>
    <i name="e_wo_entrp">    -28.38181405 </i>
    <i name="e_0_energy">    -28.38181405 </i>
   </energy>
  </scstep>
  <scstep>
   <time name="diag">    0.67    0.67</time>
   <time name="diis">    3.77    3.78</time>
   <time name="orth">    0.02    0.02</time>
   <time name="total">    7.90    7.93</time>
   <energy>
    <i name="e_fr_energy">    -28.38181990 </i>
    <i name="e_wo_entrp">    -28.38181990 </i>
    <i name="e_0_energy">    -28.38181990 </i>
   </energy>
  </scstep>
  <scstep>
   <time name="diag">    0.67    0.67</time>
   <time name="diis">    3.43    3.44</time>
   <time name="orth">    0.02    0.02</time>
   <time name="total">    7.52    7.56</time>
   <energy>
    <i name="e_fr_energy">    -28.38182051 </i>
    <i name="e_wo_entrp">    -28.38182051 </i>
    <i name="e_0_energy">    -28.38182051 </i>
   </energy>
  </scstep>
  <scstep>
   <time name="diag">    0.67    0.67</time>
   <time name="diis">    3.44    3.46</time>
   <time name="orth">    0.02    0.02</time>
   <time name="total">    7.58    7.61</time>
   <energy>
    <i name="e_fr_energy">    -28.38182206 </i>
    <i name="e_wo_entrp">    -28.38182206 </i>
    <i name="e_0_energy">    -28.38182206 </i>
   </energy>
  </scstep>
  <scstep>
   <time name="diag">    0.67    0.67</time>
   <time name="diis">    2.53    2.59</time>
   <time name="orth">    0.02    0.02</time>
   <time name="total">    6.60    6.75</time>
   <energy>
    <i name="e_fr_energy">    -28.38182277 </i>
    <i name="e_wo_entrp">    -28.38182277 </i>
    <i name="e_0_energy">    -28.38182277 </i>
   </energy>
  </scstep>
  <scstep>
   <time name="diag">    0.67    0.67</time>
   <time name="diis">    2.66    2.72</time>
   <time name="orth">    0.02    0.02</time>
   <time name="total">    6.84    6.91</time>
   <energy>
    <i name="e_fr_energy">    -28.38182309 </i>
    <i name="e_wo_entrp">    -28.38182309 </i>
    <i name="e_0_energy">    -28.38182309 </i>
   </energy>
  </scstep>
  <scstep>
   <time name="diag">    0.67    0.67</time>
   <time name="diis">    2.50    2.50</time>
   <time name="orth">    0.02    0.02</time>
   <time name="total">    6.67    6.68</time>
   <energy>
    <i name="e_fr_energy">    -28.38182324 </i>
    <i name="e_wo_entrp">    -28.38182324 </i>
    <i name="e_0_energy">    -28.38182324 </i>
   </energy>
  </scstep>
  <scstep>
   <time name="diag">    0.67    0.67</time>
   <time name="diis">    2.46    2.47</time>
   <time name="orth">    0.02    0.02</time>
   <time name="total">    6.66    6.66</time>
   <energy>
    <i name="e_fr_energy">    -28.38182335 </i>
    <i name="e_wo_entrp">    -28.38182335 </i>
    <i name="e_0_energy">    -28.38182335 </i>
   </energy>
  </scstep>
  <scstep>
   <time name="diag">    0.68    0.68</time>
   <time name="diis">    2.42    2.42</time>
   <time name="orth">    0.02    0.02</time>
   <time name="total">    6.67    6.67</time>
   <energy>
    <i name="e_fr_energy">    -28.38182345 </i>
    <i name="e_wo_entrp">    -28.38182345 </i>
    <i name="e_0_energy">    -28.38182345 </i>
   </energy>
  </scstep>
  <scstep>
   <time name="diag">    0.67    0.67</time>
   <time name="diis">    2.60    2.61</time>
   <time name="orth">    0.02    0.02</time>
   <time name="total">    6.83    6.83</time>
   <energy>
    <i name="e_fr_energy">    -28.38182349 </i>
    <i name="e_wo_entrp">    -28.38182349 </i>
    <i name="e_0_energy">    -28.38182349 </i>
   </energy>
  </scstep>
  <scstep>
   <time name="diag">    0.67    0.67</time>
   <time name="diis">    2.50    2.50</time>
   <time name="orth">    0.02    0.02</time>
   <time name="total">    6.72    6.72</time>
   <energy>
    <i name="e_fr_energy">    -28.38182356 </i>
    <i name="e_wo_entrp">    -28.38182356 </i>
    <i name="e_0_energy">    -28.38182356 </i>
   </energy>
  </scstep>
  <scstep>
   <time name="diag">    0.67    0.67</time>
   <time name="diis">    2.49    2.49</time>
   <time name="orth">    0.02    0.02</time>
   <time name="total">    6.73    6.74</time>
   <energy>
    <i name="e_fr_energy">    -28.38182361 </i>
    <i name="e_wo_entrp">    -28.38182361 </i>
    <i name="e_0_energy">    -28.38182361 </i>
   </energy>
  </scstep>
  <scstep>
   <time name="diag">    0.67    0.67</time>
   <time name="diis">    2.61    2.61</time>
   <time name="orth">    0.02    0.02</time>
   <time name="total">    6.85    6.85</time>
   <energy>
    <i name="e_fr_energy">    -28.38182367 </i>
    <i name="e_wo_entrp">    -28.38182367 </i>
    <i name="e_0_energy">    -28.38182367 </i>
   </energy>
  </scstep>
  <scstep>
   <time name="diag">    0.68    0.68</time>
   <time name="diis">    2.20    2.20</time>
   <time name="orth">    0.02    0.02</time>
   <time name="total">    6.49    6.50</time>
   <energy>
    <i name="e_fr_energy">    -28.38182379 </i>
    <i name="e_wo_entrp">    -28.38182379 </i>
    <i name="e_0_energy">    -28.38182379 </i>
   </energy>
  </scstep>
  <scstep>
   <time name="diag">    0.67    0.67</time>
   <time name="diis">    2.32    2.37</time>
   <time name="orth">    0.02    0.02</time>
   <time name="total">    6.60    6.66</time>
   <energy>
    <i name="e_fr_energy">    -28.38182383 </i>
    <i name="e_wo_entrp">    -28.38182383 </i>
    <i name="e_0_energy">    -28.38182383 </i>
   </energy>
  </scstep>
  <scstep>
   <time name="diag">    0.67    0.67</time>
   <time name="diis">    2.11    2.11</time>
   <time name="orth">    0.02    0.02</time>
   <time name="total">    6.32    6.33</time>
   <energy>
    <i name="e_fr_energy">    -28.38182387 </i>
    <i name="e_wo_entrp">    -28.38182387 </i>
    <i name="e_0_energy">    -28.38182387 </i>
   </energy>
  </scstep>
  <scstep>
   <time name="diag">    0.67    0.67</time>
   <time name="diis">    2.33    2.33</time>
   <time name="orth">    0.02    0.02</time>
   <time name="total">    5.77    5.78</time>
   <energy>
    <i name="alphaZ">      0.21758540 </i>
    <i name="ewald">    378.12240227 </i>
    <i name="hartreedc">  -1168.22149964 </i>
    <i name="XCdc">     63.97179228 </i>
    <i name="pawpsdc">   5049.91223175 </i>
    <i name="pawaedc">  -5052.79847942 </i>
    <i name="eentropy">     -0.00000000 </i>
    <i name="bandstr">   -214.28952521 </i>
    <i name="atom">    914.70366869 </i>
    <i name="e_fr_energy">    -28.38182388 </i>
    <i name="e_wo_entrp">    -28.38182388 </i>
    <i name="e_0_energy">    -28.38182388 </i>
   </energy>
  </scstep>
  <structure>
   <crystal>
    <varray name="basis" >
     <v>      30.00000000       0.00000000       0.00000000 </v>
     <v>       0.00000000      10.00000000       0.00000000 </v>
     <v>       0.00000000       0.00000000      10.00000000 </v>
    </varray>
    <i name="volume">   3000.00000000 </i>
    <varray name="rec_basis" >
     <v>       0.03333333       0.00000000       0.00000000 </v>
     <v>       0.00000000       0.10000000       0.00000000 </v>
     <v>       0.00000000       0.00000000       0.10000000 </v>
    </varray>
   </crystal>
   <varray name="positions" >
    <v>       0.10853563       0.15710957       0.17600000 </v>
    <v>       0.95513104       0.15710957       0.17600000 </v>
    <v>       0.11921080       0.25541218       0.17439231 </v>
    <v>       0.07513922       0.16672783       0.17649328 </v>
    <v>       0.94612303       0.09941802       0.25610440 </v>
    <v>       0.94624850       0.09907990       0.09607226 </v>
   </varray>
  </structure>
  <varray name="forces" >
   <v>      -0.70340266       2.46633318      -0.03086908 </v>
   <v>      -1.03705964      -2.32680073       0.01523784 </v>
   <v>      -0.81431486      -2.36955679       0.03904927 </v>
   <v>       1.47155761      -0.09678954      -0.00828928 </v>
   <v>       0.54750775       1.16396842      -1.72380993 </v>
   <v>       0.53571179       1.16284546       1.70868120 </v>
  </varray>
  <varray name="stress" >
   <v>      -1.21972695      -0.68638292       0.01644022 </v>
   <v>      -0.68638291      -1.99549918       0.02161711 </v>
   <v>       0.01644021       0.02161711      -1.48062958 </v>
  </varray>
  <energy>
   <i name="e_fr_energy">    -28.38182388 </i>
   <i name="e_wo_entrp">    -28.38182388 </i>
   <i name="e_0_energy">     -0.00000000 </i>
  </energy>
  <time name="totalsc">  366.49  368.08</time>
  <eigenvalues>
   <array>
    <dimension dim="1">band</dimension>
    <dimension dim="2">kpoint</dimension>
    <dimension dim="3">spin</dimension>
    <field>eigene</field>
    <field>occ</field>
    <set>
     <set comment="spin 1">
      <set comment="kpoint 1">
       <r>  -24.9562    1.0000 </r>
       <r>  -24.4709    1.0000 </r>
       <r>  -12.7599    1.0000 </r>
       <r>  -12.2502    1.0000 </r>
       <r>   -9.5331    1.0000 </r>
       <r>   -9.0270    1.0000 </r>
       <r>   -7.3332    1.0000 </r>
       <r>   -6.8143    1.0000 </r>
       <r>   -1.3873    0.0000 </r>
       <r>   -0.6954    0.0000 </r>
       <r>    0.1343    0.0000 </r>
       <r>    0.4594    0.0000 </r>
      </set>
      <set comment="kpoint 2">
       <r>  -24.9562    1.0000 </r>
       <r>  -24.4709    1.0000 </r>
       <r>  -12.7599    1.0000 </r>
       <r>  -12.2502    1.0000 </r>
       <r>   -9.5331    1.0000 </r>
       <r>   -9.0270    1.0000 </r>
       <r>   -7.3332    1.0000 </r>
       <r>   -6.8143    1.0000 </r>
       <r>   -1.3873    0.0000 </r>
       <r>   -0.6954    0.0000 </r>
       <r>    0.1344    0.0000 </r>
       <r>    0.4680    0.0000 </r>
      </set>
     </set>
    </set>
   </array>
  </eigenvalues>
  <separator name="orbital magnetization" >
   <v name="MAGDIPOLOUT">      0.00000000      0.00000000      0.00000000</v>
  </separator>
  <dos>
   <i name="efermi">     -6.54588519 </i>
   <total>
    <array>
     <dimension dim="1">gridpoints</dimension>
     <dimension dim="2">spin</dimension>
     <field>energy</field>
     <field>total</field>
     <field>integrated</field>
     <set>
      <set comment="spin 1">
       <r>   -26.2274     0.0000     0.0000 </r>
       <r>   -26.1342     0.0000     0.0000 </r>
       <r>   -26.0410     0.0000     0.0000 </r>
       <r>   -25.9478     0.0000     0.0000 </r>
       <r>   -25.8545     0.0000     0.0000 </r>
       <r>   -25.7613     0.0000     0.0000 </r>
       <r>   -25.6681     0.0000     0.0000 </r>
       <r>   -25.5749     0.0000     0.0000 </r>
       <r>   -25.4817     0.0000     0.0000 </r>
       <r>   -25.3884     0.0000     0.0000 </r>
       <r>   -25.2952     0.0000     0.0000 </r>
       <r>   -25.2020     0.0000     0.0000 </r>
       <r>   -25.1088     0.0002     0.0000 </r>
       <r>   -25.0155     1.0013     0.0934 </r>
       <r>   -24.9223    16.8305     1.6623 </r>
       <r>   -24.8291     3.6186     1.9997 </r>
       <r>   -24.7359     0.0035     2.0000 </r>
       <r>   -24.6427     0.0000     2.0000 </r>
       <r>   -24.5494     0.2819     2.0263 </r>
       <r>   -24.4562    13.8956     3.3217 </r>
       <r>   -24.3630     7.2521     3.9977 </r>
       <r>   -24.2698     0.0244     4.0000 </r>
       <r>   -24.1765     0.0000     4.0000 </r>
       <r>   -24.0833     0.0000     4.0000 </r>
       <r>   -23.9901     0.0000     4.0000 </r>
       <r>   -23.8969     0.0000     4.0000 </r>
       <r>   -23.8037     0.0000     4.0000 </r>
       <r>   -23.7104     0.0000     4.0000 </r>
       <r>   -23.6172     0.0000     4.0000 </r>
       <r>   -23.5240     0.0000     4.0000 </r>
       <r>   -23.4308     0.0000     4.0000 </r>
       <r>   -23.3375     0.0000     4.0000 </r>
       <r>   -23.2443     0.0000     4.0000 </r>
       <r>   -23.1511     0.0000     4.0000 </r>
       <r>   -23.0579     0.0000     4.0000 </r>
       <r>   -22.9647     0.0000     4.0000 </r>
       <r>   -22.8714     0.0000     4.0000 </r>
       <r>   -22.7782     0.0000     4.0000 </r>
       <r>   -22.6850     0.0000     4.0000 </r>
       <r>   -22.5918     0.0000     4.0000 </r>
       <r>   -22.4985     0.0000     4.0000 </r>
       <r>   -22.4053     0.0000     4.0000 </r>
       <r>   -22.3121     0.0000     4.0000 </r>
       <r>   -22.2189     0.0000     4.0000 </r>
       <r>   -22.1257     0.0000     4.0000 </r>
       <r>   -22.0324     0.0000     4.0000 </r>
       <r>   -21.9392     0.0000     4.0000 </r>
       <r>   -21.8460     0.0000     4.0000 </r>
       <r>   -21.7528     0.0000     4.0000 </r>
       <r>   -21.6595     0.0000     4.0000 </r>
       <r>   -21.5663     0.0000     4.0000 </r>
       <r>   -21.4731     0.0000     4.0000 </r>
       <r>   -21.3799     0.0000     4.0000 </r>
       <r>   -21.2867     0.0000     4.0000 </r>
       <r>   -21.1934     0.0000     4.0000 </r>
       <r>   -21.1002     0.0000     4.0000 </r>
       <r>   -21.0070     0.0000     4.0000 </r>
       <r>   -20.9138     0.0000     4.0000 </r>
       <r>   -20.8205     0.0000     4.0000 </r>
       <r>   -20.7273     0.0000     4.0000 </r>
       <r>   -20.6341     0.0000     4.0000 </r>
       <r>   -20.5409     0.0000     4.0000 </r>
       <r>   -20.4477     0.0000     4.0000 </r>
       <r>   -20.3544     0.0000     4.0000 </r>
       <r>   -20.2612     0.0000     4.0000 </r>
       <r>   -20.1680     0.0000     4.0000 </r>
       <r>   -20.0748     0.0000     4.0000 </r>
       <r>   -19.9815     0.0000     4.0000 </r>
       <r>   -19.8883     0.0000     4.0000 </r>
       <r>   -19.7951     0.0000     4.0000 </r>
       <r>   -19.7019     0.0000     4.0000 </r>
       <r>   -19.6087     0.0000     4.0000 </r>
       <r>   -19.5154     0.0000     4.0000 </r>
       <r>   -19.4222     0.0000     4.0000 </r>
       <r>   -19.3290     0.0000     4.0000 </r>
       <r>   -19.2358     0.0000     4.0000 </r>
       <r>   -19.1425     0.0000     4.0000 </r>
       <r>   -19.0493     0.0000     4.0000 </r>
       <r>   -18.9561     0.0000     4.0000 </r>
       <r>   -18.8629     0.0000     4.0000 </r>
       <r>   -18.7697     0.0000     4.0000 </r>
       <r>   -18.6764     0.0000     4.0000 </r>
       <r>   -18.5832     0.0000     4.0000 </r>
       <r>   -18.4900     0.0000     4.0000 </r>
       <r>   -18.3968     0.0000     4.0000 </r>
       <r>   -18.3035     0.0000     4.0000 </r>
       <r>   -18.2103     0.0000     4.0000 </r>
       <r>   -18.1171     0.0000     4.0000 </r>
       <r>   -18.0239     0.0000     4.0000 </r>
       <r>   -17.9307     0.0000     4.0000 </r>
       <r>   -17.8374     0.0000     4.0000 </r>
       <r>   -17.7442     0.0000     4.0000 </r>
       <r>   -17.6510     0.0000     4.0000 </r>
       <r>   -17.5578     0.0000     4.0000 </r>
       <r>   -17.4645     0.0000     4.0000 </r>
       <r>   -17.3713     0.0000     4.0000 </r>
       <r>   -17.2781     0.0000     4.0000 </r>
       <r>   -17.1849     0.0000     4.0000 </r>
       <r>   -17.0917     0.0000     4.0000 </r>
       <r>   -16.9984     0.0000     4.0000 </r>
       <r>   -16.9052     0.0000     4.0000 </r>
       <r>   -16.8120     0.0000     4.0000 </r>
       <r>   -16.7188     0.0000     4.0000 </r>
       <r>   -16.6255     0.0000     4.0000 </r>
       <r>   -16.5323     0.0000     4.0000 </r>
       <r>   -16.4391     0.0000     4.0000 </r>
       <r>   -16.3459     0.0000     4.0000 </r>
       <r>   -16.2527     0.0000     4.0000 </r>
       <r>   -16.1594     0.0000     4.0000 </r>
       <r>   -16.0662     0.0000     4.0000 </r>
       <r>   -15.9730     0.0000     4.0000 </r>
       <r>   -15.8798     0.0000     4.0000 </r>
       <r>   -15.7865     0.0000     4.0000 </r>
       <r>   -15.6933     0.0000     4.0000 </r>
       <r>   -15.6001     0.0000     4.0000 </r>
       <r>   -15.5069     0.0000     4.0000 </r>
       <r>   -15.4137     0.0000     4.0000 </r>
       <r>   -15.3204     0.0000     4.0000 </r>
       <r>   -15.2272     0.0000     4.0000 </r>
       <r>   -15.1340     0.0000     4.0000 </r>
       <r>   -15.0408     0.0000     4.0000 </r>
       <r>   -14.9475     0.0000     4.0000 </r>
       <r>   -14.8543     0.0000     4.0000 </r>
       <r>   -14.7611     0.0000     4.0000 </r>
       <r>   -14.6679     0.0000     4.0000 </r>
       <r>   -14.5747     0.0000     4.0000 </r>
       <r>   -14.4814     0.0000     4.0000 </r>
       <r>   -14.3882     0.0000     4.0000 </r>
       <r>   -14.2950     0.0000     4.0000 </r>
       <r>   -14.2018     0.0000     4.0000 </r>
       <r>   -14.1085     0.0000     4.0000 </r>
       <r>   -14.0153     0.0000     4.0000 </r>
       <r>   -13.9221     0.0000     4.0000 </r>
       <r>   -13.8289     0.0000     4.0000 </r>
       <r>   -13.7357     0.0000     4.0000 </r>
       <r>   -13.6424     0.0000     4.0000 </r>
       <r>   -13.5492     0.0000     4.0000 </r>
       <r>   -13.4560     0.0000     4.0000 </r>
       <r>   -13.3628     0.0000     4.0000 </r>
       <r>   -13.2695     0.0000     4.0000 </r>
       <r>   -13.1763     0.0000     4.0000 </r>
       <r>   -13.0831     0.0000     4.0000 </r>
       <r>   -12.9899     0.0000     4.0000 </r>
       <r>   -12.8967     0.0012     4.0001 </r>
       <r>   -12.8034     2.3420     4.2184 </r>
       <r>   -12.7102    17.3976     5.8403 </r>
       <r>   -12.6170     1.7127     5.9999 </r>
       <r>   -12.5238     0.0006     6.0000 </r>
       <r>   -12.4305     0.0000     6.0000 </r>
       <r>   -12.3373     0.1475     6.0137 </r>
       <r>   -12.2441    12.0520     7.1373 </r>
       <r>   -12.1509     9.2014     7.9950 </r>
       <r>   -12.0577     0.0532     8.0000 </r>
       <r>   -11.9644     0.0000     8.0000 </r>
       <r>   -11.8712     0.0000     8.0000 </r>
       <r>   -11.7780     0.0000     8.0000 </r>
       <r>   -11.6848     0.0000     8.0000 </r>
       <r>   -11.5915     0.0000     8.0000 </r>
       <r>   -11.4983     0.0000     8.0000 </r>
       <r>   -11.4051     0.0000     8.0000 </r>
       <r>   -11.3119     0.0000     8.0000 </r>
       <r>   -11.2186     0.0000     8.0000 </r>
       <r>   -11.1254     0.0000     8.0000 </r>
       <r>   -11.0322     0.0000     8.0000 </r>
       <r>   -10.9390     0.0000     8.0000 </r>
       <r>   -10.8458     0.0000     8.0000 </r>
       <r>   -10.7525     0.0000     8.0000 </r>
       <r>   -10.6593     0.0000     8.0000 </r>
       <r>   -10.5661     0.0000     8.0000 </r>
       <r>   -10.4729     0.0000     8.0000 </r>
       <r>   -10.3796     0.0000     8.0000 </r>
       <r>   -10.2864     0.0000     8.0000 </r>
       <r>   -10.1932     0.0000     8.0000 </r>
       <r>   -10.1000     0.0000     8.0000 </r>
       <r>   -10.0068     0.0000     8.0000 </r>
       <r>    -9.9135     0.0000     8.0000 </r>
       <r>    -9.8203     0.0000     8.0000 </r>
       <r>    -9.7271     0.0000     8.0000 </r>
       <r>    -9.6339     0.0467     8.0044 </r>
       <r>    -9.5406     8.8596     8.8303 </r>
       <r>    -9.4474    12.3823     9.9846 </r>
       <r>    -9.3542     0.1654    10.0000 </r>
       <r>    -9.2610     0.0000    10.0000 </r>
       <r>    -9.1678     0.0007    10.0001 </r>
       <r>    -9.0745     1.9152    10.1786 </r>
       <r>    -8.9813    17.4306    11.8035 </r>
       <r>    -8.8881     2.1066    11.9999 </r>
       <r>    -8.7949     0.0009    12.0000 </r>
       <r>    -8.7016     0.0000    12.0000 </r>
       <r>    -8.6084     0.0000    12.0000 </r>
       <r>    -8.5152     0.0000    12.0000 </r>
       <r>    -8.4220     0.0000    12.0000 </r>
       <r>    -8.3288     0.0000    12.0000 </r>
       <r>    -8.2355     0.0000    12.0000 </r>
       <r>    -8.1423     0.0000    12.0000 </r>
       <r>    -8.0491     0.0000    12.0000 </r>
       <r>    -7.9559     0.0000    12.0000 </r>
       <r>    -7.8626     0.0000    12.0000 </r>
       <r>    -7.7694     0.0000    12.0000 </r>
       <r>    -7.6762     0.0000    12.0000 </r>
       <r>    -7.5830     0.0000    12.0000 </r>
       <r>    -7.4898     0.0001    12.0000 </r>
       <r>    -7.3965     0.7862    12.0733 </r>
       <r>    -7.3033    16.4019    13.6023 </r>
       <r>    -7.2101     4.2606    13.9995 </r>
       <r>    -7.1169     0.0053    14.0000 </r>
       <r>    -7.0236     0.0000    14.0000 </r>
       <r>    -6.9304     0.0109    14.0010 </r>
       <r>    -6.8372     5.5312    14.5167 </r>
       <r>    -6.7440    15.4101    15.9532 </r>
       <r>    -6.6508     0.5019    16.0000 </r>
       <r>    -6.5575     0.0000    16.0000 </r>
       <r>    -6.4643     0.0000    16.0000 </r>
       <r>    -6.3711     0.0000    16.0000 </r>
       <r>    -6.2779     0.0000    16.0000 </r>
       <r>    -6.1846     0.0000    16.0000 </r>
       <r>    -6.0914     0.0000    16.0000 </r>
       <r>    -5.9982     0.0000    16.0000 </r>
       <r>    -5.9050     0.0000    16.0000 </r>
       <r>    -5.8118     0.0000    16.0000 </r>
       <r>    -5.7185     0.0000    16.0000 </r>
       <r>    -5.6253     0.0000    16.0000 </r>
       <r>    -5.5321     0.0000    16.0000 </r>
       <r>    -5.4389     0.0000    16.0000 </r>
       <r>    -5.3456     0.0000    16.0000 </r>
       <r>    -5.2524     0.0000    16.0000 </r>
       <r>    -5.1592     0.0000    16.0000 </r>
       <r>    -5.0660     0.0000    16.0000 </r>
       <r>    -4.9728     0.0000    16.0000 </r>
       <r>    -4.8795     0.0000    16.0000 </r>
       <r>    -4.7863     0.0000    16.0000 </r>
       <r>    -4.6931     0.0000    16.0000 </r>
       <r>    -4.5999     0.0000    16.0000 </r>
       <r>    -4.5066     0.0000    16.0000 </r>
       <r>    -4.4134     0.0000    16.0000 </r>
       <r>    -4.3202     0.0000    16.0000 </r>
       <r>    -4.2270     0.0000    16.0000 </r>
       <r>    -4.1338     0.0000    16.0000 </r>
       <r>    -4.0405     0.0000    16.0000 </r>
       <r>    -3.9473     0.0000    16.0000 </r>
       <r>    -3.8541     0.0000    16.0000 </r>
       <r>    -3.7609     0.0000    16.0000 </r>
       <r>    -3.6676     0.0000    16.0000 </r>
       <r>    -3.5744     0.0000    16.0000 </r>
       <r>    -3.4812     0.0000    16.0000 </r>
       <r>    -3.3880     0.0000    16.0000 </r>
       <r>    -3.2948     0.0000    16.0000 </r>
       <r>    -3.2015     0.0000    16.0000 </r>
       <r>    -3.1083     0.0000    16.0000 </r>
       <r>    -3.0151     0.0000    16.0000 </r>
       <r>    -2.9219     0.0000    16.0000 </r>
       <r>    -2.8286     0.0000    16.0000 </r>
       <r>    -2.7354     0.0000    16.0000 </r>
       <r>    -2.6422     0.0000    16.0000 </r>
       <r>    -2.5490     0.0000    16.0000 </r>
       <r>    -2.4558     0.0000    16.0000 </r>
       <r>    -2.3625     0.0000    16.0000 </r>
       <r>    -2.2693     0.0000    16.0000 </r>
       <r>    -2.1761     0.0000    16.0000 </r>
       <r>    -2.0829     0.0000    16.0000 </r>
       <r>    -1.9896     0.0000    16.0000 </r>
       <r>    -1.8964     0.0000    16.0000 </r>
       <r>    -1.8032     0.0000    16.0000 </r>
       <r>    -1.7100     0.0000    16.0000 </r>
       <r>    -1.6168     0.0000    16.0000 </r>
       <r>    -1.5235     0.0013    16.0001 </r>
       <r>    -1.4303     2.4038    16.2242 </r>
       <r>    -1.3371    17.3839    17.8448 </r>
       <r>    -1.2439     1.6646    18.0000 </r>
       <r>    -1.1506     0.0005    18.0000 </r>
       <r>    -1.0574     0.0000    18.0000 </r>
       <r>    -0.9642     0.0000    18.0000 </r>
       <r>    -0.8710     0.0000    18.0000 </r>
       <r>    -0.7778     0.2130    18.0199 </r>
       <r>    -0.6845    13.1063    19.2417 </r>
       <r>    -0.5913     8.1001    19.9968 </r>
       <r>    -0.4981     0.0347    20.0000 </r>
       <r>    -0.4049     0.0000    20.0000 </r>
       <r>    -0.3116     0.0000    20.0000 </r>
       <r>    -0.2184     0.0000    20.0000 </r>
       <r>    -0.1252     0.0000    20.0000 </r>
       <r>    -0.0320     0.0000    20.0000 </r>
       <r>     0.0612     0.4148    20.0387 </r>
       <r>     0.1545    14.9323    21.4307 </r>
       <r>     0.2477     6.0925    21.9987 </r>
       <r>     0.3409     0.0205    22.0006 </r>
       <r>     0.4341     4.3523    22.4063 </r>
       <r>     0.5274    16.3023    23.9260 </r>
       <r>     0.6206     0.7934    24.0000 </r>
       <r>     0.7138     0.0001    24.0000 </r>
       <r>     0.8070     0.0000    24.0000 </r>
       <r>     0.9002     0.0000    24.0000 </r>
       <r>     0.9935     0.0000    24.0000 </r>
       <r>     1.0867     0.0000    24.0000 </r>
       <r>     1.1799     0.0000    24.0000 </r>
       <r>     1.2731     0.0000    24.0000 </r>
       <r>     1.3664     0.0000    24.0000 </r>
       <r>     1.4596     0.0000    24.0000 </r>
       <r>     1.5528     0.0000    24.0000 </r>
       <r>     1.6460     0.0000    24.0000 </r>
       <r>     1.7392     0.0000    24.0000 </r>
      </set>
     </set>
    </array>
   </total>
  </dos>
 </calculation>
 <structure name="finalpos" >
  <crystal>
   <varray name="basis" >
    <v>      30.00000000       0.00000000       0.00000000 </v>
    <v>       0.00000000      10.00000000       0.00000000 </v>
    <v>       0.00000000       0.00000000      10.00000000 </v>
   </varray>
   <i name="volume">   3000.00000000 </i>
   <varray name="rec_basis" >
    <v>       0.03333333       0.00000000       0.00000000 </v>
    <v>       0.00000000       0.10000000       0.00000000 </v>
    <v>       0.00000000       0.00000000       0.10000000 </v>
   </varray>
  </crystal>
  <varray name="positions" >
   <v>       0.10853563       0.15710957       0.17600000 </v>
   <v>       0.95513104       0.15710957       0.17600000 </v>
   <v>       0.11921080       0.25541218       0.17439231 </v>
   <v>       0.07513922       0.16672783       0.17649328 </v>
   <v>       0.94612303       0.09941802       0.25610440 </v>
   <v>       0.94624850       0.09907990       0.09607226 </v>
  </varray>
 </structure>
</modeling>
