   6   6   0   0
  0.5000000E+03  0.3000000E-08  0.1000000E-08  0.1000000E-08  0.5000000E-15
  1.000000000000000E-004
  CAR 
 unknown system                          
      1.50433463    -26.41634882  301     -6.39489206      1.00000000
    -26.416  0.0000E+00  0.0000E+00
    -26.323  0.0000E+00  0.0000E+00
    -26.230  0.0000E+00  0.0000E+00
    -26.137  0.0000E+00  0.0000E+00
    -26.044  0.0000E+00  0.0000E+00
    -25.951  0.0000E+00  0.0000E+00
    -25.858  0.0000E+00  0.0000E+00
    -25.765  0.0000E+00  0.0000E+00
    -25.672  0.0000E+00  0.0000E+00
    -25.579  0.0000E+00  0.0000E+00
    -25.486  0.0000E+00  0.0000E+00
    -25.393  0.4215E-10  0.3923E-11
    -25.300  0.1774E-03  0.1651E-04
    -25.206  0.1009E+01  0.9390E-01
    -25.113  0.1684E+02  0.1662E+01
    -25.020  0.3633E+01  0.2000E+01
    -24.927  0.3558E-02  0.2000E+01
    -24.834  0.5274E-08  0.2000E+01
    -24.741  0.0000E+00  0.2000E+01
    -24.648  0.0000E+00  0.2000E+01
    -24.555  0.6442E-13  0.2000E+01
    -24.462  0.2487E-05  0.2000E+01
    -24.369  0.1192E+00  0.2011E+01
    -24.276  0.1142E+02  0.3074E+01
    -24.183  0.9882E+01  0.3994E+01
    -24.090  0.6908E-01  0.4000E+01
    -23.997  0.9070E-06  0.4000E+01
    -23.903  0.1431E-13  0.4000E+01
    -23.810  0.0000E+00  0.4000E+01
    -23.717  0.0000E+00  0.4000E+01
    -23.624  0.0000E+00  0.4000E+01
    -23.531  0.0000E+00  0.4000E+01
    -23.438  0.0000E+00  0.4000E+01
    -23.345  0.0000E+00  0.4000E+01
    -23.252  0.0000E+00  0.4000E+01
    -23.159  0.0000E+00  0.4000E+01
    -23.066  0.0000E+00  0.4000E+01
    -22.973  0.0000E+00  0.4000E+01
    -22.880  0.0000E+00  0.4000E+01
    -22.787  0.0000E+00  0.4000E+01
    -22.694  0.0000E+00  0.4000E+01
    -22.601  0.0000E+00  0.4000E+01
    -22.507  0.0000E+00  0.4000E+01
    -22.414  0.0000E+00  0.4000E+01
    -22.321  0.0000E+00  0.4000E+01
    -22.228  0.0000E+00  0.4000E+01
    -22.135  0.0000E+00  0.4000E+01
    -22.042  0.0000E+00  0.4000E+01
    -21.949  0.0000E+00  0.4000E+01
    -21.856  0.0000E+00  0.4000E+01
    -21.763  0.0000E+00  0.4000E+01
    -21.670  0.0000E+00  0.4000E+01
    -21.577  0.0000E+00  0.4000E+01
    -21.484  0.0000E+00  0.4000E+01
    -21.391  0.0000E+00  0.4000E+01
    -21.298  0.0000E+00  0.4000E+01
    -21.204  0.0000E+00  0.4000E+01
    -21.111  0.0000E+00  0.4000E+01
    -21.018  0.0000E+00  0.4000E+01
    -20.925  0.0000E+00  0.4000E+01
    -20.832  0.0000E+00  0.4000E+01
    -20.739  0.0000E+00  0.4000E+01
    -20.646  0.0000E+00  0.4000E+01
    -20.553  0.0000E+00  0.4000E+01
    -20.460  0.0000E+00  0.4000E+01
    -20.367  0.0000E+00  0.4000E+01
    -20.274  0.0000E+00  0.4000E+01
    -20.181  0.0000E+00  0.4000E+01
    -20.088  0.0000E+00  0.4000E+01
    -19.995  0.0000E+00  0.4000E+01
    -19.902  0.0000E+00  0.4000E+01
    -19.808  0.0000E+00  0.4000E+01
    -19.715  0.0000E+00  0.4000E+01
    -19.622  0.0000E+00  0.4000E+01
    -19.529  0.0000E+00  0.4000E+01
    -19.436  0.0000E+00  0.4000E+01
    -19.343  0.0000E+00  0.4000E+01
    -19.250  0.0000E+00  0.4000E+01
    -19.157  0.0000E+00  0.4000E+01
    -19.064  0.0000E+00  0.4000E+01
    -18.971  0.0000E+00  0.4000E+01
    -18.878  0.0000E+00  0.4000E+01
    -18.785  0.0000E+00  0.4000E+01
    -18.692  0.0000E+00  0.4000E+01
    -18.599  0.0000E+00  0.4000E+01
    -18.505  0.0000E+00  0.4000E+01
    -18.412  0.0000E+00  0.4000E+01
    -18.319  0.0000E+00  0.4000E+01
    -18.226  0.0000E+00  0.4000E+01
    -18.133  0.0000E+00  0.4000E+01
    -18.040  0.0000E+00  0.4000E+01
    -17.947  0.0000E+00  0.4000E+01
    -17.854  0.0000E+00  0.4000E+01
    -17.761  0.0000E+00  0.4000E+01
    -17.668  0.0000E+00  0.4000E+01
    -17.575  0.0000E+00  0.4000E+01
    -17.482  0.0000E+00  0.4000E+01
    -17.389  0.0000E+00  0.4000E+01
    -17.296  0.0000E+00  0.4000E+01
    -17.203  0.0000E+00  0.4000E+01
    -17.109  0.0000E+00  0.4000E+01
    -17.016  0.0000E+00  0.4000E+01
    -16.923  0.0000E+00  0.4000E+01
    -16.830  0.0000E+00  0.4000E+01
    -16.737  0.0000E+00  0.4000E+01
    -16.644  0.0000E+00  0.4000E+01
    -16.551  0.0000E+00  0.4000E+01
    -16.458  0.0000E+00  0.4000E+01
    -16.365  0.0000E+00  0.4000E+01
    -16.272  0.0000E+00  0.4000E+01
    -16.179  0.0000E+00  0.4000E+01
    -16.086  0.0000E+00  0.4000E+01
    -15.993  0.0000E+00  0.4000E+01
    -15.900  0.0000E+00  0.4000E+01
    -15.806  0.0000E+00  0.4000E+01
    -15.713  0.0000E+00  0.4000E+01
    -15.620  0.0000E+00  0.4000E+01
    -15.527  0.0000E+00  0.4000E+01
    -15.434  0.0000E+00  0.4000E+01
    -15.341  0.0000E+00  0.4000E+01
    -15.248  0.0000E+00  0.4000E+01
    -15.155  0.0000E+00  0.4000E+01
    -15.062  0.0000E+00  0.4000E+01
    -14.969  0.0000E+00  0.4000E+01
    -14.876  0.0000E+00  0.4000E+01
    -14.783  0.0000E+00  0.4000E+01
    -14.690  0.0000E+00  0.4000E+01
    -14.597  0.0000E+00  0.4000E+01
    -14.504  0.0000E+00  0.4000E+01
    -14.410  0.0000E+00  0.4000E+01
    -14.317  0.0000E+00  0.4000E+01
    -14.224  0.0000E+00  0.4000E+01
    -14.131  0.0000E+00  0.4000E+01
    -14.038  0.0000E+00  0.4000E+01
    -13.945  0.0000E+00  0.4000E+01
    -13.852  0.0000E+00  0.4000E+01
    -13.759  0.0000E+00  0.4000E+01
    -13.666  0.0000E+00  0.4000E+01
    -13.573  0.0000E+00  0.4000E+01
    -13.480  0.0000E+00  0.4000E+01
    -13.387  0.0000E+00  0.4000E+01
    -13.294  0.0000E+00  0.4000E+01
    -13.201  0.6418E-12  0.4000E+01
    -13.107  0.1162E-04  0.4000E+01
    -13.014  0.2669E+00  0.4025E+01
    -12.921  0.1373E+02  0.5302E+01
    -12.828  0.7469E+01  0.5997E+01
    -12.735  0.2708E-01  0.6000E+01
    -12.642  0.1691E-06  0.6000E+01
    -12.549  0.0000E+00  0.6000E+01
    -12.456  0.0000E+00  0.6000E+01
    -12.363  0.0000E+00  0.6000E+01
    -12.270  0.4321E-07  0.6000E+01
    -12.177  0.1236E-01  0.6001E+01
    -12.084  0.5749E+01  0.6536E+01
    -11.991  0.1525E+02  0.7956E+01
    -11.898  0.4730E+00  0.8000E+01
    -11.805  0.3632E-04  0.8000E+01
    -11.711  0.3624E-11  0.8000E+01
    -11.618  0.0000E+00  0.8000E+01
    -11.525  0.0000E+00  0.8000E+01
    -11.432  0.0000E+00  0.8000E+01
    -11.339  0.0000E+00  0.8000E+01
    -11.246  0.0000E+00  0.8000E+01
    -11.153  0.0000E+00  0.8000E+01
    -11.060  0.0000E+00  0.8000E+01
    -10.967  0.0000E+00  0.8000E+01
    -10.874  0.0000E+00  0.8000E+01
    -10.781  0.0000E+00  0.8000E+01
    -10.688  0.0000E+00  0.8000E+01
    -10.595  0.0000E+00  0.8000E+01
    -10.502  0.0000E+00  0.8000E+01
    -10.408  0.0000E+00  0.8000E+01
    -10.315  0.0000E+00  0.8000E+01
    -10.222  0.0000E+00  0.8000E+01
    -10.129  0.0000E+00  0.8000E+01
    -10.036  0.1193E-14  0.8000E+01
     -9.943  0.1326E-06  0.8000E+01
     -9.850  0.2358E-01  0.8002E+01
     -9.757  0.7144E+01  0.8667E+01
     -9.664  0.1402E+02  0.9972E+01
     -9.571  0.2971E+00  0.1000E+02
     -9.478  0.1433E-04  0.1000E+02
     -9.385  0.8827E-12  0.1000E+02
     -9.292  0.0000E+00  0.1000E+02
     -9.199  0.0000E+00  0.1000E+02
     -9.106  0.2844E-11  0.1000E+02
     -9.012  0.3100E-04  0.1000E+02
     -8.919  0.4374E+00  0.1004E+02
     -8.826  0.1506E+02  0.1144E+02
     -8.733  0.5981E+01  0.1200E+02
     -8.640  0.1385E-01  0.1200E+02
     -8.547  0.5259E-07  0.1200E+02
     -8.454  0.0000E+00  0.1200E+02
     -8.361  0.0000E+00  0.1200E+02
     -8.268  0.0000E+00  0.1200E+02
     -8.175  0.0000E+00  0.1200E+02
     -8.082  0.0000E+00  0.1200E+02
     -7.989  0.0000E+00  0.1200E+02
     -7.896  0.0000E+00  0.1200E+02
     -7.803  0.1742E-11  0.1200E+02
     -7.709  0.2247E-04  0.1200E+02
     -7.616  0.3726E+00  0.1203E+02
     -7.523  0.1464E+02  0.1340E+02
     -7.430  0.6460E+01  0.1400E+02
     -7.337  0.1738E-01  0.1400E+02
     -7.244  0.7785E-07  0.1400E+02
     -7.151  0.0000E+00  0.1400E+02
     -7.058  0.0000E+00  0.1400E+02
     -6.965  0.0000E+00  0.1400E+02
     -6.872  0.1724E-08  0.1400E+02
     -6.779  0.1806E-02  0.1400E+02
     -6.686  0.2774E+01  0.1426E+02
     -6.593  0.1728E+02  0.1587E+02
     -6.500  0.1429E+01  0.1600E+02
     -6.407  0.3823E-03  0.1600E+02
     -6.313  0.1414E-09  0.1600E+02
     -6.220  0.0000E+00  0.1600E+02
     -6.127  0.0000E+00  0.1600E+02
     -6.034  0.0000E+00  0.1600E+02
     -5.941  0.0000E+00  0.1600E+02
     -5.848  0.0000E+00  0.1600E+02
     -5.755  0.0000E+00  0.1600E+02
     -5.662  0.0000E+00  0.1600E+02
     -5.569  0.0000E+00  0.1600E+02
     -5.476  0.0000E+00  0.1600E+02
     -5.383  0.0000E+00  0.1600E+02
     -5.290  0.0000E+00  0.1600E+02
     -5.197  0.0000E+00  0.1600E+02
     -5.104  0.0000E+00  0.1600E+02
     -5.010  0.0000E+00  0.1600E+02
     -4.917  0.0000E+00  0.1600E+02
     -4.824  0.0000E+00  0.1600E+02
     -4.731  0.0000E+00  0.1600E+02
     -4.638  0.0000E+00  0.1600E+02
     -4.545  0.0000E+00  0.1600E+02
     -4.452  0.0000E+00  0.1600E+02
     -4.359  0.0000E+00  0.1600E+02
     -4.266  0.0000E+00  0.1600E+02
     -4.173  0.0000E+00  0.1600E+02
     -4.080  0.0000E+00  0.1600E+02
     -3.987  0.0000E+00  0.1600E+02
     -3.894  0.0000E+00  0.1600E+02
     -3.801  0.0000E+00  0.1600E+02
     -3.708  0.0000E+00  0.1600E+02
     -3.614  0.0000E+00  0.1600E+02
     -3.521  0.0000E+00  0.1600E+02
     -3.428  0.0000E+00  0.1600E+02
     -3.335  0.0000E+00  0.1600E+02
     -3.242  0.0000E+00  0.1600E+02
     -3.149  0.0000E+00  0.1600E+02
     -3.056  0.0000E+00  0.1600E+02
     -2.963  0.0000E+00  0.1600E+02
     -2.870  0.0000E+00  0.1600E+02
     -2.777  0.0000E+00  0.1600E+02
     -2.684  0.0000E+00  0.1600E+02
     -2.591  0.0000E+00  0.1600E+02
     -2.498  0.0000E+00  0.1600E+02
     -2.405  0.0000E+00  0.1600E+02
     -2.311  0.0000E+00  0.1600E+02
     -2.218  0.0000E+00  0.1600E+02
     -2.125  0.0000E+00  0.1600E+02
     -2.032  0.0000E+00  0.1600E+02
     -1.939  0.0000E+00  0.1600E+02
     -1.846  0.0000E+00  0.1600E+02
     -1.753  0.0000E+00  0.1600E+02
     -1.660  0.9774E-07  0.1600E+02
     -1.567  0.1981E-01  0.1600E+02
     -1.474  0.6747E+01  0.1663E+02
     -1.381  0.1438E+02  0.1797E+02
     -1.288  0.3387E+00  0.1800E+02
     -1.195  0.1858E-04  0.1800E+02
     -1.102  0.1305E-11  0.1800E+02
     -1.009  0.0000E+00  0.1800E+02
     -0.915  0.0000E+00  0.1800E+02
     -0.822  0.0000E+00  0.1800E+02
     -0.729  0.1187E-12  0.1800E+02
     -0.636  0.3773E-05  0.1800E+02
     -0.543  0.1487E+00  0.1801E+02
     -0.450  0.1206E+02  0.1914E+02
     -0.357  0.9231E+01  0.1999E+02
     -0.264  0.5432E-01  0.2000E+02
     -0.171  0.5861E-06  0.2000E+02
     -0.078  0.2407E-03  0.2000E+02
      0.015  0.1160E+01  0.2011E+02
      0.108  0.1705E+02  0.2169E+02
      0.201  0.6943E+01  0.2234E+02
      0.294  0.1683E+02  0.2391E+02
      0.388  0.9967E+00  0.2400E+02
      0.481  0.1729E-03  0.2400E+02
      0.574  0.4049E-10  0.2400E+02
      0.667  0.0000E+00  0.2400E+02
      0.760  0.0000E+00  0.2400E+02
      0.853  0.0000E+00  0.2400E+02
      0.946  0.0000E+00  0.2400E+02
      1.039  0.0000E+00  0.2400E+02
      1.132  0.0000E+00  0.2400E+02
      1.225  0.0000E+00  0.2400E+02
      1.318  0.0000E+00  0.2400E+02
      1.411  0.0000E+00  0.2400E+02
      1.504  0.0000E+00  0.2400E+02
