<?xml version="1.0" encoding="ISO-8859-1"?>
<modeling>
 <generator>
  <i name="program" type="string">vasp </i>
  <i name="version" type="string">5.4.4.18Apr17-6-g9f103f2a35  </i>
  <i name="subversion" type="string">(build Nov 25 2019 16:34:31) complex            parallel </i>
  <i name="platform" type="string">LinuxIFC </i>
  <i name="date" type="string">2021 04 06 </i>
  <i name="time" type="string">12:18:02 </i>
 </generator>
 <incar>
  <i type="string" name="PREC">a</i>
  <i type="string" name="ALGO">fast</i>
  <i name="AMIN">      0.00500000</i>
  <i type="int" name="NELM">   300</i>
  <i type="int" name="NELMIN">     4</i>
  <i type="int" name="IBRION">    -1</i>
  <i name="EDIFF">      0.00000001</i>
  <i type="int" name="NSW">     0</i>
  <i type="int" name="ISIF">     2</i>
  <i name="ENCUT">   1500.00000000</i>
  <i type="logical" name="LREAL"> F  </i>
  <i type="int" name="ISMEAR">     0</i>
  <i name="SIGMA">      0.05000000</i>
  <i name="KSPACING">      0.50000000</i>
  <i type="logical" name="KGAMMA"> F  </i>
  <i name="PSTRESS">      0.00000000</i>
  <i type="logical" name="LWAVE"> F  </i>
  <i type="logical" name="LCHARG"> F  </i>
  <v type="int" name="KPOINT_BSE">    -1     0     0     0</v>
  <i type="int" name="NELM">   300</i>
 </incar>
 <structure name="primitive_cell" >
  <crystal>
   <varray name="basis" >
    <v>      30.00000000       0.00000000       0.00000000 </v>
    <v>       0.00000000      10.00000000       0.00000000 </v>
    <v>       0.00000000       0.00000000      10.00000000 </v>
   </varray>
   <i name="volume">   3000.00000000 </i>
   <varray name="rec_basis" >
    <v>       0.03333333       0.00000000       0.00000000 </v>
    <v>       0.00000000       0.10000000       0.00000000 </v>
    <v>       0.00000000       0.00000000       0.10000000 </v>
   </varray>
  </crystal>
  <varray name="positions" >
   <v>       0.07653563       0.15710957       0.17600000 </v>
   <v>       0.04313922       0.16672783       0.17649328 </v>
   <v>       0.08721080       0.25541218       0.17439231 </v>
   <v>      -0.04486896       0.15710957       0.17600000 </v>
   <v>      -0.05375150       0.09907990       0.09607226 </v>
   <v>      -0.05387697       0.09941802       0.25610440 </v>
  </varray>
 </structure>
 <varray name="primitive_index" >
  <v type="int" >        1 </v>
  <v type="int" >        4 </v>
  <v type="int" >        3 </v>
  <v type="int" >        2 </v>
  <v type="int" >        6 </v>
  <v type="int" >        5 </v>
 </varray>
 <kpoints>
  <generation param="Monkhorst-Pack">
   <v type="int" name="divisions">       1        2        2 </v>
   <v name="usershift">      0.00000000       0.00000000       0.00000000 </v>
   <v name="genvec1">      1.00000000       0.00000000       0.00000000 </v>
   <v name="genvec2">      0.00000000       0.50000000       0.00000000 </v>
   <v name="genvec3">      0.00000000       0.00000000       0.50000000 </v>
   <v name="shift">      0.00000000       0.50000000       0.50000000 </v>
  </generation>
  <varray name="kpointlist" >
   <v>       0.00000000       0.25000000       0.25000000 </v>
   <v>       0.00000000      -0.25000000       0.25000000 </v>
  </varray>
  <varray name="weights" >
   <v>       0.50000000 </v>
   <v>       0.50000000 </v>
  </varray>
 </kpoints>
 <parameters>
  <separator name="general" >
   <i type="string" name="SYSTEM">unknown system</i>
   <i type="logical" name="LCOMPAT"> F  </i>
  </separator>
  <separator name="electronic" >
   <i type="string" name="PREC">a</i>
   <i name="ENMAX">   1500.00000000</i>
   <i name="ENAUG">   1000.00000000</i>
   <i name="EDIFF">      0.00000001</i>
   <i type="int" name="IALGO">    68</i>
   <i type="int" name="IWAVPR">    10</i>
   <i type="int" name="NBANDS">    12</i>
   <i name="NELECT">     16.00000000</i>
   <i type="int" name="TURBO">     0</i>
   <i type="int" name="IRESTART">     0</i>
   <i type="int" name="NREBOOT">     0</i>
   <i type="int" name="NMIN">     0</i>
   <i name="EREF">      0.00000000</i>
   <separator name="electronic smearing" >
    <i type="int" name="ISMEAR">     0</i>
    <i name="SIGMA">      0.05000000</i>
    <i name="KSPACING">      0.50000000</i>
    <i type="logical" name="KGAMMA"> F  </i>
   </separator>
   <separator name="electronic projectors" >
    <i type="logical" name="LREAL"> F  </i>
    <v name="ROPT">      0.00000000      0.00000000</v>
    <i type="int" name="LMAXPAW">  -100</i>
    <i type="int" name="LMAXMIX">     2</i>
    <i type="logical" name="NLSPLINE"> F  </i>
   </separator>
   <separator name="electronic startup" >
    <i type="int" name="ISTART">     0</i>
    <i type="int" name="ICHARG">     2</i>
    <i type="int" name="INIWAV">     1</i>
   </separator>
   <separator name="electronic spin" >
    <i type="int" name="ISPIN">     1</i>
    <i type="logical" name="LNONCOLLINEAR"> F  </i>
    <v name="MAGMOM">      1.00000000      1.00000000      1.00000000      1.00000000      1.00000000      1.00000000</v>
    <i name="NUPDOWN">     -1.00000000</i>
    <i type="logical" name="LSORBIT"> F  </i>
    <v name="SAXIS">      0.00000000      0.00000000      1.00000000</v>
    <i type="logical" name="LSPIRAL"> F  </i>
    <v name="QSPIRAL">      0.00000000      0.00000000      0.00000000</v>
    <i type="logical" name="LZEROZ"> F  </i>
   </separator>
   <separator name="electronic exchange-correlation" >
    <i type="logical" name="LASPH"> F  </i>
    <i type="logical" name="LMETAGGA"> F  </i>
   </separator>
   <separator name="electronic convergence" >
    <i type="int" name="NELM">   300</i>
    <i type="int" name="NELMDL">     0</i>
    <i type="int" name="NELMIN">     4</i>
    <i name="ENINI">   1500.00000000</i>
    <separator name="electronic convergence detail" >
     <i type="logical" name="LDIAG"> T  </i>
     <i type="logical" name="LSUBROT"> F  </i>
     <i name="WEIMIN">      0.00000000</i>
     <i name="EBREAK">      0.00000000</i>
     <i name="DEPER">      0.30000000</i>
     <i type="int" name="NRMM">     4</i>
     <i name="TIME">      0.40000000</i>
    </separator>
   </separator>
   <separator name="electronic mixer" >
    <i name="AMIX">      0.40000000</i>
    <i name="BMIX">      1.00000000</i>
    <i name="AMIN">      0.00500000</i>
    <i name="AMIX_MAG">      1.60000000</i>
    <i name="BMIX_MAG">      1.00000000</i>
    <separator name="electronic mixer details" >
     <i type="int" name="IMIX">     4</i>
     <i type="logical" name="MIXFIRST"> F  </i>
     <i type="int" name="MAXMIX">   -45</i>
     <i name="WC">    100.00000000</i>
     <i type="int" name="INIMIX">     1</i>
     <i type="int" name="MIXPRE">     1</i>
     <i type="int" name="MREMOVE">     5</i>
    </separator>
   </separator>
   <separator name="electronic dipolcorrection" >
    <i type="logical" name="LDIPOL"> F  </i>
    <i type="logical" name="LMONO"> F  </i>
    <i type="int" name="IDIPOL">     0</i>
    <i name="EPSILON">      1.00000000</i>
    <v name="DIPOL">   -100.00000000   -100.00000000   -100.00000000</v>
    <i name="EFIELD">      0.00000000</i>
   </separator>
  </separator>
  <separator name="grids" >
   <i type="int" name="NGX">   384</i>
   <i type="int" name="NGY">   126</i>
   <i type="int" name="NGZ">   126</i>
   <i type="int" name="NGXF">   768</i>
   <i type="int" name="NGYF">   252</i>
   <i type="int" name="NGZF">   252</i>
   <i type="logical" name="ADDGRID"> F  </i>
  </separator>
  <separator name="ionic" >
   <i type="int" name="NSW">     0</i>
   <i type="int" name="IBRION">    -1</i>
   <i type="int" name="MDALGO">     0</i>
   <i type="int" name="ISIF">     2</i>
   <i name="PSTRESS">      0.00000000</i>
   <i name="EDIFFG">      0.00000010</i>
   <i type="int" name="NFREE">     0</i>
   <i name="POTIM">      0.50000000</i>
   <i name="SMASS">     -3.00000000</i>
   <i name="SCALEE">      1.00000000</i>
  </separator>
  <separator name="ionic md" >
   <i name="TEBEG">      0.00010000</i>
   <i name="TEEND">      0.00010000</i>
   <i type="int" name="NBLOCK">     1</i>
   <i type="int" name="KBLOCK">     1</i>
   <i type="int" name="NPACO">   256</i>
   <i name="APACO">     16.00000000</i>
  </separator>
  <separator name="symmetry" >
   <i type="int" name="ISYM">     2</i>
   <i name="SYMPREC">      0.00001000</i>
  </separator>
  <separator name="dos" >
   <i type="int" name="LORBIT">     0</i>
   <v name="RWIGS">     -1.00000000     -1.00000000</v>
   <i type="int" name="NEDOS">   301</i>
   <i name="EMIN">     10.00000000</i>
   <i name="EMAX">    -10.00000000</i>
   <i name="EFERMI">      0.00000000</i>
  </separator>
  <separator name="writing" >
   <i type="int" name="NWRITE">     2</i>
   <i type="logical" name="LWAVE"> F  </i>
   <i type="logical" name="LDOWNSAMPLE"> F  </i>
   <i type="logical" name="LCHARG"> F  </i>
   <i type="logical" name="LPARD"> F  </i>
   <i type="logical" name="LVTOT"> F  </i>
   <i type="logical" name="LVHAR"> F  </i>
   <i type="logical" name="LELF"> F  </i>
   <i type="logical" name="LOPTICS"> F  </i>
   <v name="STM">      0.00000000      0.00000000      0.00000000      0.00000000      0.00000000      0.00000000      0.00000000</v>
  </separator>
  <separator name="performance" >
   <i type="int" name="NPAR">     2</i>
   <i type="int" name="NSIM">     4</i>
   <i type="int" name="NBLK">    -1</i>
   <i type="logical" name="LPLANE"> T  </i>
   <i type="logical" name="LSCALAPACK"> T  </i>
   <i type="logical" name="LSCAAWARE"> F  </i>
   <i type="logical" name="LSCALU"> F  </i>
   <i type="logical" name="LASYNC"> F  </i>
   <i type="logical" name="LORBITALREAL"> F  </i>
  </separator>
  <separator name="miscellaneous" >
   <i type="int" name="IDIOT">     3</i>
   <i type="int" name="ISPECIAL">     0</i>
   <i type="logical" name="LMUSIC"> F  </i>
   <v name="POMASS">     16.00000000      1.00000000</v>
   <v name="DARWINR">      0.00000000      0.00000000</v>
   <v name="DARWINV">      1.00000000      1.00000000</v>
   <i type="logical" name="LCORR"> T  </i>
  </separator>
  <i type="logical" name="GGA_COMPAT"> T  </i>
  <i type="logical" name="LBERRY"> F  </i>
  <i type="int" name="ICORELEVEL">     0</i>
  <i type="logical" name="LDAU"> F  </i>
  <i type="int" name="I_CONSTRAINED_M">     0</i>
  <separator name="electronic exchange-correlation" >
   <i type="string" name="GGA">--</i>
   <i type="int" name="VOSKOWN">     0</i>
   <i type="logical" name="LHFCALC"> F  </i>
   <i type="string" name="PRECFOCK"></i>
   <i type="logical" name="LSYMGRAD"> F  </i>
   <i type="logical" name="LHFONE"> F  </i>
   <i type="logical" name="LRHFCALC"> F  </i>
   <i type="logical" name="LTHOMAS"> F  </i>
   <i type="logical" name="LMODELHF"> F  </i>
   <i name="ENCUT4O">     -1.00000000</i>
   <i type="int" name="EXXOEP">     0</i>
   <i type="int" name="FOURORBIT">     0</i>
   <i name="AEXX">      0.00000000</i>
   <i name="HFALPHA">      0.00000000</i>
   <i name="MCALPHA">      0.00000000</i>
   <i name="ALDAX">      1.00000000</i>
   <i name="AGGAX">      1.00000000</i>
   <i name="ALDAC">      1.00000000</i>
   <i name="AGGAC">      1.00000000</i>
   <i type="int" name="NKREDX">     1</i>
   <i type="int" name="NKREDY">     1</i>
   <i type="int" name="NKREDZ">     1</i>
   <i type="logical" name="SHIFTRED"> F  </i>
   <i type="logical" name="ODDONLY"> F  </i>
   <i type="logical" name="EVENONLY"> F  </i>
   <i type="int" name="LMAXFOCK">     0</i>
   <i type="int" name="NMAXFOCKAE">     0</i>
   <i type="logical" name="LFOCKAEDFT"> F  </i>
   <i name="HFSCREEN">      0.00000000</i>
   <i name="HFSCREENC">      0.00000000</i>
   <i type="int" name="NBANDSGWLOW">     0</i>
  </separator>
  <separator name="vdW DFT" >
   <i type="logical" name="LUSE_VDW"> F  </i>
   <i name="Zab_VDW">     -0.84910000</i>
   <i name="PARAM1">      0.12340000</i>
   <i name="PARAM2">      1.00000000</i>
   <i name="PARAM3">      0.00000000</i>
  </separator>
  <separator name="model GW" >
   <i type="int" name="MODEL_GW">     0</i>
   <i name="MODEL_EPS0">    300.00000000</i>
   <i name="MODEL_ALPHA">      1.00000000</i>
  </separator>
  <separator name="linear response parameters" >
   <i type="logical" name="LEPSILON"> F  </i>
   <i type="logical" name="LRPA"> F  </i>
   <i type="logical" name="LNABLA"> F  </i>
   <i type="logical" name="LVEL"> F  </i>
   <i type="int" name="KINTER">     0</i>
   <i name="CSHIFT">      0.10000000</i>
   <i name="OMEGAMAX">     -1.00000000</i>
   <i name="DEG_THRESHOLD">      0.00200000</i>
   <i name="RTIME">     -0.10000000</i>
   <i name="WPLASMAI">      0.00000000</i>
   <v name="DFIELD">      0.00000000      0.00000000      0.00000000</v>
   <v name="WPLASMA">      0.00000000      0.00000000      0.00000000      0.00000000      0.00000000      0.00000000      0.00000000      0.00000000      0.00000000</v>
  </separator>
  <separator name="orbital magnetization" >
   <i type="logical" name="NUCIND"> F  </i>
   <v name="MAGPOS">      0.00000000      0.00000000      0.00000000</v>
   <i type="logical" name="LNICSALL"> T  </i>
   <i type="logical" name="ORBITALMAG"> F  </i>
   <i type="logical" name="LMAGBLOCH"> F  </i>
   <i type="logical" name="LCHIMAG"> F  </i>
   <i type="logical" name="LGAUGE"> T  </i>
   <i type="int" name="MAGATOM">     0</i>
   <v name="MAGDIPOL">      0.00000000      0.00000000      0.00000000</v>
   <v name="AVECCONST">      0.00000000      0.00000000      0.00000000</v>
  </separator>
  <separator name="response functions" >
   <i type="logical" name="LADDER"> F  </i>
   <i type="logical" name="LRPAFORCE"> F  </i>
   <i type="logical" name="LFXC"> F  </i>
   <i type="logical" name="LHARTREE"> T  </i>
   <i type="int" name="IBSE">     0</i>
   <v type="int" name="KPOINT">    -1     0     0     0</v>
   <i type="logical" name="LTCTE"> F  </i>
   <i type="logical" name="LTETE"> F  </i>
   <i type="logical" name="LTRIPLET"> F  </i>
   <i type="logical" name="LFXCEPS"> F  </i>
   <i type="logical" name="LFXHEG"> F  </i>
   <i type="int" name="NATURALO">     2</i>
   <i type="logical" name="L2ORDER"> F  </i>
   <i type="logical" name="LMP2LT"> F  </i>
   <i type="logical" name="LUSEW"> F  </i>
   <i name="ENCUTGW">     -2.00000000</i>
   <i name="ENCUTGWSOFT">     -2.00000000</i>
   <i name="ENCUTLF">     -1.00000000</i>
   <i type="int" name="LMAXMP2">    -1</i>
   <i name="SCISSOR">      0.00000000</i>
   <i type="int" name="NOMEGA">     0</i>
   <i type="int" name="NOMEGAR">     0</i>
   <i type="int" name="NBANDSGW">    -1</i>
   <i type="int" name="NBANDSO">    -1</i>
   <i type="int" name="NBANDSV">    -1</i>
   <i type="int" name="NELM">   300</i>
   <i type="int" name="NELMHF">     1</i>
   <i type="int" name="DIM">     3</i>
   <i type="int" name="ANTIRES">     0</i>
   <i name="OMEGAMAX">    -30.00000000</i>
   <i name="OMEGAMIN">    -30.00000000</i>
   <i name="OMEGATL">   -200.00000000</i>
   <i type="int" name="OMEGAGRID">   140</i>
   <i name="CSHIFT">     -0.10000000</i>
   <i type="logical" name="SELFENERGY"> F  </i>
   <i type="logical" name="LSPECTRAL"> F  </i>
   <i type="logical" name="LSPECTRALGW"> F  </i>
   <i type="logical" name="LSINGLES"> F  </i>
   <i type="logical" name="LFERMIGW"> F  </i>
   <i type="logical" name="ODDONLYGW"> F  </i>
   <i type="logical" name="EVENONLYGW"> F  </i>
   <i type="int" name="NKREDLFX">     1</i>
   <i type="int" name="NKREDLFY">     1</i>
   <i type="int" name="NKREDLFZ">     1</i>
   <i type="int" name="MAXMEM">  2800</i>
   <i type="int" name="TELESCOPE">     0</i>
   <i type="int" name="TAUPAR">     1</i>
   <i type="int" name="OMEGAPAR">    -1</i>
   <i name="LAMBDA">      1.00000000</i>
  </separator>
  <separator name="External order field" >
   <i name="OFIELD_KAPPA">      0.00000000</i>
   <v name="OFIELD_K">      0.00000000      0.00000000      0.00000000</v>
   <i name="OFIELD_Q6_NEAR">      0.00000000</i>
   <i name="OFIELD_Q6_FAR">      0.00000000</i>
   <i name="OFIELD_A">      0.00000000</i>
  </separator>
 </parameters>
 <atominfo>
  <atoms>       6 </atoms>
  <types>       2 </types>
  <array name="atoms" >
   <dimension dim="1">ion</dimension>
   <field type="string">element</field>
   <field type="int">atomtype</field>
   <set>
    <rc><c>O </c><c>   1</c></rc>
    <rc><c>O </c><c>   1</c></rc>
    <rc><c>H </c><c>   2</c></rc>
    <rc><c>H </c><c>   2</c></rc>
    <rc><c>H </c><c>   2</c></rc>
    <rc><c>H </c><c>   2</c></rc>
   </set>
  </array>
  <array name="atomtypes" >
   <dimension dim="1">type</dimension>
   <field type="int">atomspertype</field>
   <field type="string">element</field>
   <field>mass</field>
   <field>valence</field>
   <field type="string">pseudopotential</field>
   <set>
    <rc><c>   2</c><c>O </c><c>     16.00000000</c><c>      6.00000000</c><c>  PAW_PBE O_h 06Feb2004                 </c></rc>
    <rc><c>   4</c><c>H </c><c>      1.00000000</c><c>      1.00000000</c><c>  PAW_PBE H_h 06Feb2004                 </c></rc>
   </set>
  </array>
 </atominfo>
 <structure name="initialpos" >
  <crystal>
   <varray name="basis" >
    <v>      30.00000000       0.00000000       0.00000000 </v>
    <v>       0.00000000      10.00000000       0.00000000 </v>
    <v>       0.00000000       0.00000000      10.00000000 </v>
   </varray>
   <i name="volume">   3000.00000000 </i>
   <varray name="rec_basis" >
    <v>       0.03333333       0.00000000       0.00000000 </v>
    <v>       0.00000000       0.10000000       0.00000000 </v>
    <v>       0.00000000       0.00000000       0.10000000 </v>
   </varray>
  </crystal>
  <varray name="positions" >
   <v>       0.07653563       0.15710957       0.17600000 </v>
   <v>       0.95513104       0.15710957       0.17600000 </v>
   <v>       0.08721080       0.25541218       0.17439231 </v>
   <v>       0.04313922       0.16672783       0.17649328 </v>
   <v>       0.94612303       0.09941802       0.25610440 </v>
   <v>       0.94624850       0.09907990       0.09607226 </v>
  </varray>
 </structure>
 <calculation>
  <scstep>
   <time name="dav">    3.21    3.25</time>
   <time name="total">    5.78    5.96</time>
   <energy>
    <i name="alphaZ">      0.21758540 </i>
    <i name="ewald">    445.34282757 </i>
    <i name="hartreedc">  -1171.19027992 </i>
    <i name="XCdc">     60.63557342 </i>
    <i name="pawpsdc">    697.41634940 </i>
    <i name="pawaedc">   -699.85762974 </i>
    <i name="eentropy">     -0.00282288 </i>
    <i name="bandstr">    -95.43030537 </i>
    <i name="atom">    914.70366869 </i>
    <i name="e_fr_energy">    151.83496658 </i>
    <i name="e_wo_entrp">    151.83778945 </i>
    <i name="e_0_energy">    151.83637802 </i>
   </energy>
  </scstep>
  <scstep>
   <time name="dav">    3.79    3.85</time>
   <time name="total">    3.79    3.85</time>
   <energy>
    <i name="e_fr_energy">     57.96564463 </i>
    <i name="e_wo_entrp">     57.99327831 </i>
    <i name="e_0_energy">     57.97946147 </i>
   </energy>
  </scstep>
  <scstep>
   <time name="dav">    3.81    3.82</time>
   <time name="total">    3.81    3.82</time>
   <energy>
    <i name="e_fr_energy">    -15.02047154 </i>
    <i name="e_wo_entrp">    -15.02047154 </i>
    <i name="e_0_energy">    -15.02047154 </i>
   </energy>
  </scstep>
  <scstep>
   <time name="dav">    3.36    3.37</time>
   <time name="total">    3.36    3.37</time>
   <energy>
    <i name="e_fr_energy">    -31.19262780 </i>
    <i name="e_wo_entrp">    -31.19262780 </i>
    <i name="e_0_energy">    -31.19262780 </i>
   </energy>
  </scstep>
  <scstep>
   <time name="dav">    3.51    3.51</time>
   <time name="total">    4.03    4.04</time>
   <energy>
    <i name="e_fr_energy">    -31.99289448 </i>
    <i name="e_wo_entrp">    -31.99289448 </i>
    <i name="e_0_energy">    -31.99289448 </i>
   </energy>
  </scstep>
  <scstep>
   <time name="diag">    0.67    0.67</time>
   <time name="diis">    3.67    3.68</time>
   <time name="orth">    0.02    0.02</time>
   <time name="total">    7.55    7.57</time>
   <energy>
    <i name="e_fr_energy">    -28.71069463 </i>
    <i name="e_wo_entrp">    -28.71069463 </i>
    <i name="e_0_energy">    -28.71069463 </i>
   </energy>
  </scstep>
  <scstep>
   <time name="diag">    0.63    0.66</time>
   <time name="diis">    4.26    4.31</time>
   <time name="orth">    0.02    0.02</time>
   <time name="total">    8.14    8.26</time>
   <energy>
    <i name="e_fr_energy">    -28.67314743 </i>
    <i name="e_wo_entrp">    -28.67314743 </i>
    <i name="e_0_energy">    -28.67314743 </i>
   </energy>
  </scstep>
  <scstep>
   <time name="diag">    0.67    0.67</time>
   <time name="diis">    3.63    3.64</time>
   <time name="orth">    0.02    0.02</time>
   <time name="total">    7.57    7.59</time>
   <energy>
    <i name="e_fr_energy">    -29.60546430 </i>
    <i name="e_wo_entrp">    -29.60546430 </i>
    <i name="e_0_energy">    -29.60546430 </i>
   </energy>
  </scstep>
  <scstep>
   <time name="diag">    0.67    0.67</time>
   <time name="diis">    3.63    3.63</time>
   <time name="orth">    0.02    0.02</time>
   <time name="total">    7.61    7.61</time>
   <energy>
    <i name="e_fr_energy">    -28.46025702 </i>
    <i name="e_wo_entrp">    -28.46025702 </i>
    <i name="e_0_energy">    -28.46025702 </i>
   </energy>
  </scstep>
  <scstep>
   <time name="diag">    0.67    0.67</time>
   <time name="diis">    4.32    4.43</time>
   <time name="orth">    0.02    0.02</time>
   <time name="total">    8.31    8.42</time>
   <energy>
    <i name="e_fr_energy">    -28.46591802 </i>
    <i name="e_wo_entrp">    -28.46591802 </i>
    <i name="e_0_energy">    -28.46591802 </i>
   </energy>
  </scstep>
  <scstep>
   <time name="diag">    0.67    0.67</time>
   <time name="diis">    3.72    3.72</time>
   <time name="orth">    0.02    0.02</time>
   <time name="total">    7.66    7.67</time>
   <energy>
    <i name="e_fr_energy">    -28.46200893 </i>
    <i name="e_wo_entrp">    -28.46200893 </i>
    <i name="e_0_energy">    -28.46200893 </i>
   </energy>
  </scstep>
  <scstep>
   <time name="diag">    0.67    0.67</time>
   <time name="diis">    3.44    3.44</time>
   <time name="orth">    0.02    0.02</time>
   <time name="total">    7.34    7.35</time>
   <energy>
    <i name="e_fr_energy">    -28.45034121 </i>
    <i name="e_wo_entrp">    -28.45034121 </i>
    <i name="e_0_energy">    -28.45034121 </i>
   </energy>
  </scstep>
  <scstep>
   <time name="diag">    0.67    0.67</time>
   <time name="diis">    4.23    4.24</time>
   <time name="orth">    0.02    0.02</time>
   <time name="total">    8.19    8.23</time>
   <energy>
    <i name="e_fr_energy">    -28.45213303 </i>
    <i name="e_wo_entrp">    -28.45213303 </i>
    <i name="e_0_energy">    -28.45213303 </i>
   </energy>
  </scstep>
  <scstep>
   <time name="diag">    0.67    0.67</time>
   <time name="diis">    4.00    4.00</time>
   <time name="orth">    0.02    0.02</time>
   <time name="total">    7.97    7.98</time>
   <energy>
    <i name="e_fr_energy">    -28.45560710 </i>
    <i name="e_wo_entrp">    -28.45560710 </i>
    <i name="e_0_energy">    -28.45560710 </i>
   </energy>
  </scstep>
  <scstep>
   <time name="diag">    0.67    0.67</time>
   <time name="diis">    3.23    3.23</time>
   <time name="orth">    0.02    0.02</time>
   <time name="total">    7.19    7.19</time>
   <energy>
    <i name="e_fr_energy">    -28.45853779 </i>
    <i name="e_wo_entrp">    -28.45853779 </i>
    <i name="e_0_energy">    -28.45853779 </i>
   </energy>
  </scstep>
  <scstep>
   <time name="diag">    0.66    0.66</time>
   <time name="diis">    4.07    4.08</time>
   <time name="orth">    0.02    0.02</time>
   <time name="total">    8.02    8.02</time>
   <energy>
    <i name="e_fr_energy">    -28.45880894 </i>
    <i name="e_wo_entrp">    -28.45880894 </i>
    <i name="e_0_energy">    -28.45880894 </i>
   </energy>
  </scstep>
  <scstep>
   <time name="diag">    0.67    0.67</time>
   <time name="diis">    3.41    3.41</time>
   <time name="orth">    0.02    0.02</time>
   <time name="total">    7.34    7.35</time>
   <energy>
    <i name="e_fr_energy">    -28.46067795 </i>
    <i name="e_wo_entrp">    -28.46067795 </i>
    <i name="e_0_energy">    -28.46067795 </i>
   </energy>
  </scstep>
  <scstep>
   <time name="diag">    0.66    0.67</time>
   <time name="diis">    3.80    3.86</time>
   <time name="orth">    0.02    0.02</time>
   <time name="total">    7.67    7.75</time>
   <energy>
    <i name="e_fr_energy">    -28.46170310 </i>
    <i name="e_wo_entrp">    -28.46170310 </i>
    <i name="e_0_energy">    -28.46170310 </i>
   </energy>
  </scstep>
  <scstep>
   <time name="diag">    0.67    0.67</time>
   <time name="diis">    3.67    3.68</time>
   <time name="orth">    0.02    0.02</time>
   <time name="total">    7.60    7.60</time>
   <energy>
    <i name="e_fr_energy">    -28.46153271 </i>
    <i name="e_wo_entrp">    -28.46153271 </i>
    <i name="e_0_energy">    -28.46153271 </i>
   </energy>
  </scstep>
  <scstep>
   <time name="diag">    0.67    0.67</time>
   <time name="diis">    3.69    3.69</time>
   <time name="orth">    0.02    0.02</time>
   <time name="total">    7.63    7.64</time>
   <energy>
    <i name="e_fr_energy">    -28.46150293 </i>
    <i name="e_wo_entrp">    -28.46150293 </i>
    <i name="e_0_energy">    -28.46150293 </i>
   </energy>
  </scstep>
  <scstep>
   <time name="diag">    0.66    0.66</time>
   <time name="diis">    3.88    3.88</time>
   <time name="orth">    0.02    0.02</time>
   <time name="total">    7.83    7.84</time>
   <energy>
    <i name="e_fr_energy">    -28.46092374 </i>
    <i name="e_wo_entrp">    -28.46092374 </i>
    <i name="e_0_energy">    -28.46092374 </i>
   </energy>
  </scstep>
  <scstep>
   <time name="diag">    0.66    0.66</time>
   <time name="diis">    3.85    3.85</time>
   <time name="orth">    0.02    0.02</time>
   <time name="total">    7.77    7.77</time>
   <energy>
    <i name="e_fr_energy">    -28.46086350 </i>
    <i name="e_wo_entrp">    -28.46086350 </i>
    <i name="e_0_energy">    -28.46086350 </i>
   </energy>
  </scstep>
  <scstep>
   <time name="diag">    0.67    0.67</time>
   <time name="diis">    3.51    3.51</time>
   <time name="orth">    0.02    0.02</time>
   <time name="total">    7.47    7.48</time>
   <energy>
    <i name="e_fr_energy">    -28.46075347 </i>
    <i name="e_wo_entrp">    -28.46075347 </i>
    <i name="e_0_energy">    -28.46075347 </i>
   </energy>
  </scstep>
  <scstep>
   <time name="diag">    0.65    0.67</time>
   <time name="diis">    3.74    3.75</time>
   <time name="orth">    0.02    0.02</time>
   <time name="total">    7.69    7.71</time>
   <energy>
    <i name="e_fr_energy">    -28.46098448 </i>
    <i name="e_wo_entrp">    -28.46098448 </i>
    <i name="e_0_energy">    -28.46098448 </i>
   </energy>
  </scstep>
  <scstep>
   <time name="diag">    0.66    0.66</time>
   <time name="diis">    3.24    3.24</time>
   <time name="orth">    0.02    0.02</time>
   <time name="total">    7.22    7.22</time>
   <energy>
    <i name="e_fr_energy">    -28.46110961 </i>
    <i name="e_wo_entrp">    -28.46110961 </i>
    <i name="e_0_energy">    -28.46110961 </i>
   </energy>
  </scstep>
  <scstep>
   <time name="diag">    0.77    0.78</time>
   <time name="diis">    3.81    3.82</time>
   <time name="orth">    0.02    0.02</time>
   <time name="total">    7.91    7.93</time>
   <energy>
    <i name="e_fr_energy">    -28.46136240 </i>
    <i name="e_wo_entrp">    -28.46136240 </i>
    <i name="e_0_energy">    -28.46136240 </i>
   </energy>
  </scstep>
  <scstep>
   <time name="diag">    0.66    0.67</time>
   <time name="diis">    3.03    3.03</time>
   <time name="orth">    0.02    0.02</time>
   <time name="total">    7.04    7.04</time>
   <energy>
    <i name="e_fr_energy">    -28.46219139 </i>
    <i name="e_wo_entrp">    -28.46219139 </i>
    <i name="e_0_energy">    -28.46219139 </i>
   </energy>
  </scstep>
  <scstep>
   <time name="diag">    0.67    0.67</time>
   <time name="diis">    4.04    4.04</time>
   <time name="orth">    0.02    0.02</time>
   <time name="total">    8.06    8.07</time>
   <energy>
    <i name="e_fr_energy">    -28.46262665 </i>
    <i name="e_wo_entrp">    -28.46262665 </i>
    <i name="e_0_energy">    -28.46262665 </i>
   </energy>
  </scstep>
  <scstep>
   <time name="diag">    0.67    0.67</time>
   <time name="diis">    3.26    3.26</time>
   <time name="orth">    0.02    0.02</time>
   <time name="total">    7.30    7.30</time>
   <energy>
    <i name="e_fr_energy">    -28.46303000 </i>
    <i name="e_wo_entrp">    -28.46303000 </i>
    <i name="e_0_energy">    -28.46303000 </i>
   </energy>
  </scstep>
  <scstep>
   <time name="diag">    0.66    0.66</time>
   <time name="diis">    4.05    4.06</time>
   <time name="orth">    0.02    0.02</time>
   <time name="total">    8.15    8.18</time>
   <energy>
    <i name="e_fr_energy">    -28.46314230 </i>
    <i name="e_wo_entrp">    -28.46314230 </i>
    <i name="e_0_energy">    -28.46314230 </i>
   </energy>
  </scstep>
  <scstep>
   <time name="diag">    0.67    0.67</time>
   <time name="diis">    3.41    3.42</time>
   <time name="orth">    0.02    0.02</time>
   <time name="total">    7.42    7.47</time>
   <energy>
    <i name="e_fr_energy">    -28.46325521 </i>
    <i name="e_wo_entrp">    -28.46325521 </i>
    <i name="e_0_energy">    -28.46325521 </i>
   </energy>
  </scstep>
  <scstep>
   <time name="diag">    0.67    0.67</time>
   <time name="diis">    3.71    3.71</time>
   <time name="orth">    0.02    0.02</time>
   <time name="total">    7.76    7.76</time>
   <energy>
    <i name="e_fr_energy">    -28.46327857 </i>
    <i name="e_wo_entrp">    -28.46327857 </i>
    <i name="e_0_energy">    -28.46327857 </i>
   </energy>
  </scstep>
  <scstep>
   <time name="diag">    0.67    0.67</time>
   <time name="diis">    3.45    3.45</time>
   <time name="orth">    0.02    0.02</time>
   <time name="total">    7.52    7.53</time>
   <energy>
    <i name="e_fr_energy">    -28.46329673 </i>
    <i name="e_wo_entrp">    -28.46329673 </i>
    <i name="e_0_energy">    -28.46329673 </i>
   </energy>
  </scstep>
  <scstep>
   <time name="diag">    0.69    0.69</time>
   <time name="diis">    3.18    3.19</time>
   <time name="orth">    0.02    0.02</time>
   <time name="total">    7.30    7.33</time>
   <energy>
    <i name="e_fr_energy">    -28.46330803 </i>
    <i name="e_wo_entrp">    -28.46330803 </i>
    <i name="e_0_energy">    -28.46330803 </i>
   </energy>
  </scstep>
  <scstep>
   <time name="diag">    0.66    0.66</time>
   <time name="diis">    3.34    3.34</time>
   <time name="orth">    0.02    0.02</time>
   <time name="total">    7.47    7.47</time>
   <energy>
    <i name="e_fr_energy">    -28.46331305 </i>
    <i name="e_wo_entrp">    -28.46331305 </i>
    <i name="e_0_energy">    -28.46331305 </i>
   </energy>
  </scstep>
  <scstep>
   <time name="diag">    0.66    0.66</time>
   <time name="diis">    3.35    3.35</time>
   <time name="orth">    0.02    0.02</time>
   <time name="total">    7.49    7.50</time>
   <energy>
    <i name="e_fr_energy">    -28.46331479 </i>
    <i name="e_wo_entrp">    -28.46331479 </i>
    <i name="e_0_energy">    -28.46331479 </i>
   </energy>
  </scstep>
  <scstep>
   <time name="diag">    0.67    0.67</time>
   <time name="diis">    2.69    2.69</time>
   <time name="orth">    0.02    0.02</time>
   <time name="total">    6.83    6.84</time>
   <energy>
    <i name="e_fr_energy">    -28.46331560 </i>
    <i name="e_wo_entrp">    -28.46331560 </i>
    <i name="e_0_energy">    -28.46331560 </i>
   </energy>
  </scstep>
  <scstep>
   <time name="diag">    0.67    0.67</time>
   <time name="diis">    2.81    2.82</time>
   <time name="orth">    0.03    0.03</time>
   <time name="total">    6.93    6.95</time>
   <energy>
    <i name="e_fr_energy">    -28.46331605 </i>
    <i name="e_wo_entrp">    -28.46331605 </i>
    <i name="e_0_energy">    -28.46331605 </i>
   </energy>
  </scstep>
  <scstep>
   <time name="diag">    0.66    0.67</time>
   <time name="diis">    2.69    2.70</time>
   <time name="orth">    0.02    0.02</time>
   <time name="total">    6.86    6.87</time>
   <energy>
    <i name="e_fr_energy">    -28.46331617 </i>
    <i name="e_wo_entrp">    -28.46331617 </i>
    <i name="e_0_energy">    -28.46331617 </i>
   </energy>
  </scstep>
  <scstep>
   <time name="diag">    0.67    0.67</time>
   <time name="diis">    2.10    2.10</time>
   <time name="orth">    0.02    0.02</time>
   <time name="total">    6.27    6.28</time>
   <energy>
    <i name="e_fr_energy">    -28.46331639 </i>
    <i name="e_wo_entrp">    -28.46331639 </i>
    <i name="e_0_energy">    -28.46331639 </i>
   </energy>
  </scstep>
  <scstep>
   <time name="diag">    0.67    0.67</time>
   <time name="diis">    2.65    2.65</time>
   <time name="orth">    0.02    0.02</time>
   <time name="total">    6.87    6.88</time>
   <energy>
    <i name="e_fr_energy">    -28.46331646 </i>
    <i name="e_wo_entrp">    -28.46331646 </i>
    <i name="e_0_energy">    -28.46331646 </i>
   </energy>
  </scstep>
  <scstep>
   <time name="diag">    0.67    0.67</time>
   <time name="diis">    2.56    2.57</time>
   <time name="orth">    0.02    0.02</time>
   <time name="total">    6.77    6.79</time>
   <energy>
    <i name="e_fr_energy">    -28.46331658 </i>
    <i name="e_wo_entrp">    -28.46331658 </i>
    <i name="e_0_energy">    -28.46331658 </i>
   </energy>
  </scstep>
  <scstep>
   <time name="diag">    0.69    0.70</time>
   <time name="diis">    2.51    2.51</time>
   <time name="orth">    0.02    0.02</time>
   <time name="total">    6.73    6.75</time>
   <energy>
    <i name="e_fr_energy">    -28.46331670 </i>
    <i name="e_wo_entrp">    -28.46331670 </i>
    <i name="e_0_energy">    -28.46331670 </i>
   </energy>
  </scstep>
  <scstep>
   <time name="diag">    0.66    0.66</time>
   <time name="diis">    2.71    2.72</time>
   <time name="orth">    0.02    0.02</time>
   <time name="total">    6.93    6.94</time>
   <energy>
    <i name="e_fr_energy">    -28.46331680 </i>
    <i name="e_wo_entrp">    -28.46331680 </i>
    <i name="e_0_energy">    -28.46331680 </i>
   </energy>
  </scstep>
  <scstep>
   <time name="diag">    0.67    0.67</time>
   <time name="diis">    2.17    2.17</time>
   <time name="orth">    0.02    0.02</time>
   <time name="total">    6.40    6.41</time>
   <energy>
    <i name="e_fr_energy">    -28.46331704 </i>
    <i name="e_wo_entrp">    -28.46331704 </i>
    <i name="e_0_energy">    -28.46331704 </i>
   </energy>
  </scstep>
  <scstep>
   <time name="diag">    0.67    0.67</time>
   <time name="diis">    2.52    2.52</time>
   <time name="orth">    0.02    0.02</time>
   <time name="total">    6.78    6.79</time>
   <energy>
    <i name="e_fr_energy">    -28.46331707 </i>
    <i name="e_wo_entrp">    -28.46331707 </i>
    <i name="e_0_energy">    -28.46331707 </i>
   </energy>
  </scstep>
  <scstep>
   <time name="diag">    0.67    0.67</time>
   <time name="diis">    2.20    2.21</time>
   <time name="orth">    0.02    0.02</time>
   <time name="total">    6.49    6.50</time>
   <energy>
    <i name="e_fr_energy">    -28.46331713 </i>
    <i name="e_wo_entrp">    -28.46331713 </i>
    <i name="e_0_energy">    -28.46331713 </i>
   </energy>
  </scstep>
  <scstep>
   <time name="diag">    0.67    0.67</time>
   <time name="diis">    2.19    2.21</time>
   <time name="orth">    0.02    0.02</time>
   <time name="total">    6.49    6.51</time>
   <energy>
    <i name="e_fr_energy">    -28.46331716 </i>
    <i name="e_wo_entrp">    -28.46331716 </i>
    <i name="e_0_energy">    -28.46331716 </i>
   </energy>
  </scstep>
  <scstep>
   <time name="diag">    0.67    0.67</time>
   <time name="diis">    2.45    2.46</time>
   <time name="orth">    0.02    0.02</time>
   <time name="total">    6.75    6.75</time>
   <energy>
    <i name="e_fr_energy">    -28.46331718 </i>
    <i name="e_wo_entrp">    -28.46331718 </i>
    <i name="e_0_energy">    -28.46331718 </i>
   </energy>
  </scstep>
  <scstep>
   <time name="diag">    0.66    0.67</time>
   <time name="diis">    2.21    2.21</time>
   <time name="orth">    0.02    0.02</time>
   <time name="total">    5.64    5.65</time>
   <energy>
    <i name="alphaZ">      0.21758540 </i>
    <i name="ewald">    445.34282757 </i>
    <i name="hartreedc">  -1235.42663679 </i>
    <i name="XCdc">     63.98832060 </i>
    <i name="pawpsdc">   5033.91159458 </i>
    <i name="pawaedc">  -5036.80153778 </i>
    <i name="eentropy">     -0.00000000 </i>
    <i name="bandstr">   -214.39913947 </i>
    <i name="atom">    914.70366869 </i>
    <i name="e_fr_energy">    -28.46331718 </i>
    <i name="e_wo_entrp">    -28.46331718 </i>
    <i name="e_0_energy">    -28.46331718 </i>
   </energy>
  </scstep>
  <structure>
   <crystal>
    <varray name="basis" >
     <v>      30.00000000       0.00000000       0.00000000 </v>
     <v>       0.00000000      10.00000000       0.00000000 </v>
     <v>       0.00000000       0.00000000      10.00000000 </v>
    </varray>
    <i name="volume">   3000.00000000 </i>
    <varray name="rec_basis" >
     <v>       0.03333333       0.00000000       0.00000000 </v>
     <v>       0.00000000       0.10000000       0.00000000 </v>
     <v>       0.00000000       0.00000000       0.10000000 </v>
    </varray>
   </crystal>
   <varray name="positions" >
    <v>       0.07653563       0.15710957       0.17600000 </v>
    <v>       0.95513104       0.15710957       0.17600000 </v>
    <v>       0.08721080       0.25541218       0.17439231 </v>
    <v>       0.04313922       0.16672783       0.17649328 </v>
    <v>       0.94612303       0.09941802       0.25610440 </v>
    <v>       0.94624850       0.09907990       0.09607226 </v>
   </varray>
  </structure>
  <varray name="forces" >
   <v>      -0.63783705       2.47227858      -0.03111597 </v>
   <v>      -0.96051771      -2.31976480       0.01581948 </v>
   <v>      -0.81550381      -2.38334682       0.03936177 </v>
   <v>       1.31743555      -0.09329597      -0.00887868 </v>
   <v>       0.55382517       1.16268685      -1.70742899 </v>
   <v>       0.54259786       1.16144217       1.69224239 </v>
  </varray>
  <varray name="stress" >
   <v>      -1.29080195      -0.69866105       0.01582518 </v>
   <v>      -0.69866105      -1.99857136       0.02179736 </v>
   <v>       0.01582517       0.02179736      -1.46497350 </v>
  </varray>
  <energy>
   <i name="e_fr_energy">    -28.46331718 </i>
   <i name="e_wo_entrp">    -28.46331718 </i>
   <i name="e_0_energy">     -0.00000000 </i>
  </energy>
  <time name="totalsc">  358.90  360.03</time>
  <eigenvalues>
   <array>
    <dimension dim="1">band</dimension>
    <dimension dim="2">kpoint</dimension>
    <dimension dim="3">spin</dimension>
    <field>eigene</field>
    <field>occ</field>
    <set>
     <set comment="spin 1">
      <set comment="kpoint 1">
       <r>  -25.1472    1.0000 </r>
       <r>  -24.2790    1.0000 </r>
       <r>  -12.9351    1.0000 </r>
       <r>  -12.0619    1.0000 </r>
       <r>   -9.7418    1.0000 </r>
       <r>   -8.8470    1.0000 </r>
       <r>   -7.5418    1.0000 </r>
       <r>   -6.6458    1.0000 </r>
       <r>   -1.4568    0.0000 </r>
       <r>   -0.4561    0.0000 </r>
       <r>    0.0717    0.0000 </r>
       <r>    0.2352    0.0000 </r>
      </set>
      <set comment="kpoint 2">
       <r>  -25.1472    1.0000 </r>
       <r>  -24.2790    1.0000 </r>
       <r>  -12.9351    1.0000 </r>
       <r>  -12.0619    1.0000 </r>
       <r>   -9.7418    1.0000 </r>
       <r>   -8.8470    1.0000 </r>
       <r>   -7.5418    1.0000 </r>
       <r>   -6.6458    1.0000 </r>
       <r>   -1.4568    0.0000 </r>
       <r>   -0.4562    0.0000 </r>
       <r>    0.0724    0.0000 </r>
       <r>    0.2348    0.0000 </r>
      </set>
     </set>
    </set>
   </array>
  </eigenvalues>
  <separator name="orbital magnetization" >
   <v name="MAGDIPOLOUT">      0.00000000      0.00000000      0.00000000</v>
  </separator>
  <dos>
   <i name="efermi">     -6.39489206 </i>
   <total>
    <array>
     <dimension dim="1">gridpoints</dimension>
     <dimension dim="2">spin</dimension>
     <field>energy</field>
     <field>total</field>
     <field>integrated</field>
     <set>
      <set comment="spin 1">
       <r>   -26.4163     0.0000     0.0000 </r>
       <r>   -26.3233     0.0000     0.0000 </r>
       <r>   -26.2302     0.0000     0.0000 </r>
       <r>   -26.1371     0.0000     0.0000 </r>
       <r>   -26.0441     0.0000     0.0000 </r>
       <r>   -25.9510     0.0000     0.0000 </r>
       <r>   -25.8579     0.0000     0.0000 </r>
       <r>   -25.7649     0.0000     0.0000 </r>
       <r>   -25.6718     0.0000     0.0000 </r>
       <r>   -25.5787     0.0000     0.0000 </r>
       <r>   -25.4857     0.0000     0.0000 </r>
       <r>   -25.3926     0.0000     0.0000 </r>
       <r>   -25.2995     0.0002     0.0000 </r>
       <r>   -25.2065     1.0088     0.0939 </r>
       <r>   -25.1134    16.8439     1.6615 </r>
       <r>   -25.0203     3.6330     1.9997 </r>
       <r>   -24.9272     0.0036     2.0000 </r>
       <r>   -24.8342     0.0000     2.0000 </r>
       <r>   -24.7411     0.0000     2.0000 </r>
       <r>   -24.6480     0.0000     2.0000 </r>
       <r>   -24.5550     0.0000     2.0000 </r>
       <r>   -24.4619     0.0000     2.0000 </r>
       <r>   -24.3688     0.1192     2.0111 </r>
       <r>   -24.2758    11.4187     3.0738 </r>
       <r>   -24.1827     9.8825     3.9936 </r>
       <r>   -24.0896     0.0691     4.0000 </r>
       <r>   -23.9966     0.0000     4.0000 </r>
       <r>   -23.9035     0.0000     4.0000 </r>
       <r>   -23.8104     0.0000     4.0000 </r>
       <r>   -23.7173     0.0000     4.0000 </r>
       <r>   -23.6243     0.0000     4.0000 </r>
       <r>   -23.5312     0.0000     4.0000 </r>
       <r>   -23.4381     0.0000     4.0000 </r>
       <r>   -23.3451     0.0000     4.0000 </r>
       <r>   -23.2520     0.0000     4.0000 </r>
       <r>   -23.1589     0.0000     4.0000 </r>
       <r>   -23.0659     0.0000     4.0000 </r>
       <r>   -22.9728     0.0000     4.0000 </r>
       <r>   -22.8797     0.0000     4.0000 </r>
       <r>   -22.7867     0.0000     4.0000 </r>
       <r>   -22.6936     0.0000     4.0000 </r>
       <r>   -22.6005     0.0000     4.0000 </r>
       <r>   -22.5075     0.0000     4.0000 </r>
       <r>   -22.4144     0.0000     4.0000 </r>
       <r>   -22.3213     0.0000     4.0000 </r>
       <r>   -22.2282     0.0000     4.0000 </r>
       <r>   -22.1352     0.0000     4.0000 </r>
       <r>   -22.0421     0.0000     4.0000 </r>
       <r>   -21.9490     0.0000     4.0000 </r>
       <r>   -21.8560     0.0000     4.0000 </r>
       <r>   -21.7629     0.0000     4.0000 </r>
       <r>   -21.6698     0.0000     4.0000 </r>
       <r>   -21.5768     0.0000     4.0000 </r>
       <r>   -21.4837     0.0000     4.0000 </r>
       <r>   -21.3906     0.0000     4.0000 </r>
       <r>   -21.2976     0.0000     4.0000 </r>
       <r>   -21.2045     0.0000     4.0000 </r>
       <r>   -21.1114     0.0000     4.0000 </r>
       <r>   -21.0184     0.0000     4.0000 </r>
       <r>   -20.9253     0.0000     4.0000 </r>
       <r>   -20.8322     0.0000     4.0000 </r>
       <r>   -20.7391     0.0000     4.0000 </r>
       <r>   -20.6461     0.0000     4.0000 </r>
       <r>   -20.5530     0.0000     4.0000 </r>
       <r>   -20.4599     0.0000     4.0000 </r>
       <r>   -20.3669     0.0000     4.0000 </r>
       <r>   -20.2738     0.0000     4.0000 </r>
       <r>   -20.1807     0.0000     4.0000 </r>
       <r>   -20.0877     0.0000     4.0000 </r>
       <r>   -19.9946     0.0000     4.0000 </r>
       <r>   -19.9015     0.0000     4.0000 </r>
       <r>   -19.8085     0.0000     4.0000 </r>
       <r>   -19.7154     0.0000     4.0000 </r>
       <r>   -19.6223     0.0000     4.0000 </r>
       <r>   -19.5292     0.0000     4.0000 </r>
       <r>   -19.4362     0.0000     4.0000 </r>
       <r>   -19.3431     0.0000     4.0000 </r>
       <r>   -19.2500     0.0000     4.0000 </r>
       <r>   -19.1570     0.0000     4.0000 </r>
       <r>   -19.0639     0.0000     4.0000 </r>
       <r>   -18.9708     0.0000     4.0000 </r>
       <r>   -18.8778     0.0000     4.0000 </r>
       <r>   -18.7847     0.0000     4.0000 </r>
       <r>   -18.6916     0.0000     4.0000 </r>
       <r>   -18.5986     0.0000     4.0000 </r>
       <r>   -18.5055     0.0000     4.0000 </r>
       <r>   -18.4124     0.0000     4.0000 </r>
       <r>   -18.3194     0.0000     4.0000 </r>
       <r>   -18.2263     0.0000     4.0000 </r>
       <r>   -18.1332     0.0000     4.0000 </r>
       <r>   -18.0401     0.0000     4.0000 </r>
       <r>   -17.9471     0.0000     4.0000 </r>
       <r>   -17.8540     0.0000     4.0000 </r>
       <r>   -17.7609     0.0000     4.0000 </r>
       <r>   -17.6679     0.0000     4.0000 </r>
       <r>   -17.5748     0.0000     4.0000 </r>
       <r>   -17.4817     0.0000     4.0000 </r>
       <r>   -17.3887     0.0000     4.0000 </r>
       <r>   -17.2956     0.0000     4.0000 </r>
       <r>   -17.2025     0.0000     4.0000 </r>
       <r>   -17.1095     0.0000     4.0000 </r>
       <r>   -17.0164     0.0000     4.0000 </r>
       <r>   -16.9233     0.0000     4.0000 </r>
       <r>   -16.8302     0.0000     4.0000 </r>
       <r>   -16.7372     0.0000     4.0000 </r>
       <r>   -16.6441     0.0000     4.0000 </r>
       <r>   -16.5510     0.0000     4.0000 </r>
       <r>   -16.4580     0.0000     4.0000 </r>
       <r>   -16.3649     0.0000     4.0000 </r>
       <r>   -16.2718     0.0000     4.0000 </r>
       <r>   -16.1788     0.0000     4.0000 </r>
       <r>   -16.0857     0.0000     4.0000 </r>
       <r>   -15.9926     0.0000     4.0000 </r>
       <r>   -15.8996     0.0000     4.0000 </r>
       <r>   -15.8065     0.0000     4.0000 </r>
       <r>   -15.7134     0.0000     4.0000 </r>
       <r>   -15.6204     0.0000     4.0000 </r>
       <r>   -15.5273     0.0000     4.0000 </r>
       <r>   -15.4342     0.0000     4.0000 </r>
       <r>   -15.3411     0.0000     4.0000 </r>
       <r>   -15.2481     0.0000     4.0000 </r>
       <r>   -15.1550     0.0000     4.0000 </r>
       <r>   -15.0619     0.0000     4.0000 </r>
       <r>   -14.9689     0.0000     4.0000 </r>
       <r>   -14.8758     0.0000     4.0000 </r>
       <r>   -14.7827     0.0000     4.0000 </r>
       <r>   -14.6897     0.0000     4.0000 </r>
       <r>   -14.5966     0.0000     4.0000 </r>
       <r>   -14.5035     0.0000     4.0000 </r>
       <r>   -14.4105     0.0000     4.0000 </r>
       <r>   -14.3174     0.0000     4.0000 </r>
       <r>   -14.2243     0.0000     4.0000 </r>
       <r>   -14.1312     0.0000     4.0000 </r>
       <r>   -14.0382     0.0000     4.0000 </r>
       <r>   -13.9451     0.0000     4.0000 </r>
       <r>   -13.8520     0.0000     4.0000 </r>
       <r>   -13.7590     0.0000     4.0000 </r>
       <r>   -13.6659     0.0000     4.0000 </r>
       <r>   -13.5728     0.0000     4.0000 </r>
       <r>   -13.4798     0.0000     4.0000 </r>
       <r>   -13.3867     0.0000     4.0000 </r>
       <r>   -13.2936     0.0000     4.0000 </r>
       <r>   -13.2006     0.0000     4.0000 </r>
       <r>   -13.1075     0.0000     4.0000 </r>
       <r>   -13.0144     0.2669     4.0248 </r>
       <r>   -12.9214    13.7266     5.3024 </r>
       <r>   -12.8283     7.4689     5.9975 </r>
       <r>   -12.7352     0.0271     6.0000 </r>
       <r>   -12.6421     0.0000     6.0000 </r>
       <r>   -12.5491     0.0000     6.0000 </r>
       <r>   -12.4560     0.0000     6.0000 </r>
       <r>   -12.3629     0.0000     6.0000 </r>
       <r>   -12.2699     0.0000     6.0000 </r>
       <r>   -12.1768     0.0124     6.0012 </r>
       <r>   -12.0837     5.7491     6.5362 </r>
       <r>   -11.9907    15.2549     7.9560 </r>
       <r>   -11.8976     0.4730     8.0000 </r>
       <r>   -11.8045     0.0000     8.0000 </r>
       <r>   -11.7115     0.0000     8.0000 </r>
       <r>   -11.6184     0.0000     8.0000 </r>
       <r>   -11.5253     0.0000     8.0000 </r>
       <r>   -11.4322     0.0000     8.0000 </r>
       <r>   -11.3392     0.0000     8.0000 </r>
       <r>   -11.2461     0.0000     8.0000 </r>
       <r>   -11.1530     0.0000     8.0000 </r>
       <r>   -11.0600     0.0000     8.0000 </r>
       <r>   -10.9669     0.0000     8.0000 </r>
       <r>   -10.8738     0.0000     8.0000 </r>
       <r>   -10.7808     0.0000     8.0000 </r>
       <r>   -10.6877     0.0000     8.0000 </r>
       <r>   -10.5946     0.0000     8.0000 </r>
       <r>   -10.5016     0.0000     8.0000 </r>
       <r>   -10.4085     0.0000     8.0000 </r>
       <r>   -10.3154     0.0000     8.0000 </r>
       <r>   -10.2224     0.0000     8.0000 </r>
       <r>   -10.1293     0.0000     8.0000 </r>
       <r>   -10.0362     0.0000     8.0000 </r>
       <r>    -9.9431     0.0000     8.0000 </r>
       <r>    -9.8501     0.0236     8.0022 </r>
       <r>    -9.7570     7.1440     8.6671 </r>
       <r>    -9.6639    14.0248     9.9724 </r>
       <r>    -9.5709     0.2971    10.0000 </r>
       <r>    -9.4778     0.0000    10.0000 </r>
       <r>    -9.3847     0.0000    10.0000 </r>
       <r>    -9.2917     0.0000    10.0000 </r>
       <r>    -9.1986     0.0000    10.0000 </r>
       <r>    -9.1055     0.0000    10.0000 </r>
       <r>    -9.0125     0.0000    10.0000 </r>
       <r>    -8.9194     0.4374    10.0407 </r>
       <r>    -8.8263    15.0573    11.4421 </r>
       <r>    -8.7332     5.9809    11.9987 </r>
       <r>    -8.6402     0.0139    12.0000 </r>
       <r>    -8.5471     0.0000    12.0000 </r>
       <r>    -8.4540     0.0000    12.0000 </r>
       <r>    -8.3610     0.0000    12.0000 </r>
       <r>    -8.2679     0.0000    12.0000 </r>
       <r>    -8.1748     0.0000    12.0000 </r>
       <r>    -8.0818     0.0000    12.0000 </r>
       <r>    -7.9887     0.0000    12.0000 </r>
       <r>    -7.8956     0.0000    12.0000 </r>
       <r>    -7.8026     0.0000    12.0000 </r>
       <r>    -7.7095     0.0000    12.0000 </r>
       <r>    -7.6164     0.3726    12.0347 </r>
       <r>    -7.5234    14.6397    13.3972 </r>
       <r>    -7.4303     6.4597    13.9984 </r>
       <r>    -7.3372     0.0174    14.0000 </r>
       <r>    -7.2441     0.0000    14.0000 </r>
       <r>    -7.1511     0.0000    14.0000 </r>
       <r>    -7.0580     0.0000    14.0000 </r>
       <r>    -6.9649     0.0000    14.0000 </r>
       <r>    -6.8719     0.0000    14.0000 </r>
       <r>    -6.7788     0.0018    14.0002 </r>
       <r>    -6.6857     2.7741    14.2583 </r>
       <r>    -6.5927    17.2837    15.8669 </r>
       <r>    -6.4996     1.4295    16.0000 </r>
       <r>    -6.4065     0.0004    16.0000 </r>
       <r>    -6.3135     0.0000    16.0000 </r>
       <r>    -6.2204     0.0000    16.0000 </r>
       <r>    -6.1273     0.0000    16.0000 </r>
       <r>    -6.0342     0.0000    16.0000 </r>
       <r>    -5.9412     0.0000    16.0000 </r>
       <r>    -5.8481     0.0000    16.0000 </r>
       <r>    -5.7550     0.0000    16.0000 </r>
       <r>    -5.6620     0.0000    16.0000 </r>
       <r>    -5.5689     0.0000    16.0000 </r>
       <r>    -5.4758     0.0000    16.0000 </r>
       <r>    -5.3828     0.0000    16.0000 </r>
       <r>    -5.2897     0.0000    16.0000 </r>
       <r>    -5.1966     0.0000    16.0000 </r>
       <r>    -5.1036     0.0000    16.0000 </r>
       <r>    -5.0105     0.0000    16.0000 </r>
       <r>    -4.9174     0.0000    16.0000 </r>
       <r>    -4.8244     0.0000    16.0000 </r>
       <r>    -4.7313     0.0000    16.0000 </r>
       <r>    -4.6382     0.0000    16.0000 </r>
       <r>    -4.5451     0.0000    16.0000 </r>
       <r>    -4.4521     0.0000    16.0000 </r>
       <r>    -4.3590     0.0000    16.0000 </r>
       <r>    -4.2659     0.0000    16.0000 </r>
       <r>    -4.1729     0.0000    16.0000 </r>
       <r>    -4.0798     0.0000    16.0000 </r>
       <r>    -3.9867     0.0000    16.0000 </r>
       <r>    -3.8937     0.0000    16.0000 </r>
       <r>    -3.8006     0.0000    16.0000 </r>
       <r>    -3.7075     0.0000    16.0000 </r>
       <r>    -3.6145     0.0000    16.0000 </r>
       <r>    -3.5214     0.0000    16.0000 </r>
       <r>    -3.4283     0.0000    16.0000 </r>
       <r>    -3.3353     0.0000    16.0000 </r>
       <r>    -3.2422     0.0000    16.0000 </r>
       <r>    -3.1491     0.0000    16.0000 </r>
       <r>    -3.0560     0.0000    16.0000 </r>
       <r>    -2.9630     0.0000    16.0000 </r>
       <r>    -2.8699     0.0000    16.0000 </r>
       <r>    -2.7768     0.0000    16.0000 </r>
       <r>    -2.6838     0.0000    16.0000 </r>
       <r>    -2.5907     0.0000    16.0000 </r>
       <r>    -2.4976     0.0000    16.0000 </r>
       <r>    -2.4046     0.0000    16.0000 </r>
       <r>    -2.3115     0.0000    16.0000 </r>
       <r>    -2.2184     0.0000    16.0000 </r>
       <r>    -2.1254     0.0000    16.0000 </r>
       <r>    -2.0323     0.0000    16.0000 </r>
       <r>    -1.9392     0.0000    16.0000 </r>
       <r>    -1.8461     0.0000    16.0000 </r>
       <r>    -1.7531     0.0000    16.0000 </r>
       <r>    -1.6600     0.0000    16.0000 </r>
       <r>    -1.5669     0.0198    16.0018 </r>
       <r>    -1.4739     6.7473    16.6298 </r>
       <r>    -1.3808    14.3836    17.9685 </r>
       <r>    -1.2877     0.3387    18.0000 </r>
       <r>    -1.1947     0.0000    18.0000 </r>
       <r>    -1.1016     0.0000    18.0000 </r>
       <r>    -1.0085     0.0000    18.0000 </r>
       <r>    -0.9155     0.0000    18.0000 </r>
       <r>    -0.8224     0.0000    18.0000 </r>
       <r>    -0.7293     0.0000    18.0000 </r>
       <r>    -0.6363     0.0000    18.0000 </r>
       <r>    -0.5432     0.1487    18.0138 </r>
       <r>    -0.4501    12.0555    19.1358 </r>
       <r>    -0.3570     9.2309    19.9949 </r>
       <r>    -0.2640     0.0543    20.0000 </r>
       <r>    -0.1709     0.0000    20.0000 </r>
       <r>    -0.0778     0.0002    20.0000 </r>
       <r>     0.0152     1.1602    20.1080 </r>
       <r>     0.1083    17.0518    21.6950 </r>
       <r>     0.2014     6.9425    22.3411 </r>
       <r>     0.2944    16.8272    23.9072 </r>
       <r>     0.3875     0.9967    24.0000 </r>
       <r>     0.4806     0.0002    24.0000 </r>
       <r>     0.5736     0.0000    24.0000 </r>
       <r>     0.6667     0.0000    24.0000 </r>
       <r>     0.7598     0.0000    24.0000 </r>
       <r>     0.8529     0.0000    24.0000 </r>
       <r>     0.9459     0.0000    24.0000 </r>
       <r>     1.0390     0.0000    24.0000 </r>
       <r>     1.1321     0.0000    24.0000 </r>
       <r>     1.2251     0.0000    24.0000 </r>
       <r>     1.3182     0.0000    24.0000 </r>
       <r>     1.4113     0.0000    24.0000 </r>
       <r>     1.5043     0.0000    24.0000 </r>
      </set>
     </set>
    </array>
   </total>
  </dos>
 </calculation>
 <structure name="finalpos" >
  <crystal>
   <varray name="basis" >
    <v>      30.00000000       0.00000000       0.00000000 </v>
    <v>       0.00000000      10.00000000       0.00000000 </v>
    <v>       0.00000000       0.00000000      10.00000000 </v>
   </varray>
   <i name="volume">   3000.00000000 </i>
   <varray name="rec_basis" >
    <v>       0.03333333       0.00000000       0.00000000 </v>
    <v>       0.00000000       0.10000000       0.00000000 </v>
    <v>       0.00000000       0.00000000       0.10000000 </v>
   </varray>
  </crystal>
  <varray name="positions" >
   <v>       0.07653563       0.15710957       0.17600000 </v>
   <v>       0.95513104       0.15710957       0.17600000 </v>
   <v>       0.08721080       0.25541218       0.17439231 </v>
   <v>       0.04313922       0.16672783       0.17649328 </v>
   <v>       0.94612303       0.09941802       0.25610440 </v>
   <v>       0.94624850       0.09907990       0.09607226 </v>
  </varray>
 </structure>
</modeling>
