1.562489223480224609e+01 0.000000000000000000e+00 0.000000000000000000e+00 0.000000000000000000e+00 1.562489223480224609e+01 0.000000000000000000e+00 0.000000000000000000e+00 0.000000000000000000e+00 1.562489223480224609e+01
1.450461006164550781e+01 0.000000000000000000e+00 0.000000000000000000e+00 0.000000000000000000e+00 1.450461006164550781e+01 0.000000000000000000e+00 0.000000000000000000e+00 0.000000000000000000e+00 1.450461006164550781e+01
1.451205158233642578e+01 0.000000000000000000e+00 0.000000000000000000e+00 0.000000000000000000e+00 1.451205158233642578e+01 0.000000000000000000e+00 0.000000000000000000e+00 0.000000000000000000e+00 1.451205158233642578e+01
1.464156723022460938e+01 0.000000000000000000e+00 0.000000000000000000e+00 0.000000000000000000e+00 1.464156723022460938e+01 0.000000000000000000e+00 0.000000000000000000e+00 0.000000000000000000e+00 1.464156723022460938e+01
1.461771011352539062e+01 0.000000000000000000e+00 0.000000000000000000e+00 0.000000000000000000e+00 1.461771011352539062e+01 0.000000000000000000e+00 0.000000000000000000e+00 0.000000000000000000e+00 1.461771011352539062e+01
1.479957008361816406e+01 0.000000000000000000e+00 0.000000000000000000e+00 0.000000000000000000e+00 1.479957008361816406e+01 0.000000000000000000e+00 0.000000000000000000e+00 0.000000000000000000e+00 1.479957008361816406e+01
1.465749931335449219e+01 0.000000000000000000e+00 0.000000000000000000e+00 0.000000000000000000e+00 1.465749931335449219e+01 0.000000000000000000e+00 0.000000000000000000e+00 0.000000000000000000e+00 1.465749931335449219e+01
1.458867835998535156e+01 0.000000000000000000e+00 0.000000000000000000e+00 0.000000000000000000e+00 1.458867835998535156e+01 0.000000000000000000e+00 0.000000000000000000e+00 0.000000000000000000e+00 1.458867835998535156e+01
1.449637794494628906e+01 0.000000000000000000e+00 0.000000000000000000e+00 0.000000000000000000e+00 1.449637794494628906e+01 0.000000000000000000e+00 0.000000000000000000e+00 0.000000000000000000e+00 1.449637794494628906e+01
1.449007225036621094e+01 0.000000000000000000e+00 0.000000000000000000e+00 0.000000000000000000e+00 1.449007225036621094e+01 0.000000000000000000e+00 0.000000000000000000e+00 0.000000000000000000e+00 1.449007225036621094e+01
1.461300563812255859e+01 0.000000000000000000e+00 0.000000000000000000e+00 0.000000000000000000e+00 1.461300563812255859e+01 0.000000000000000000e+00 0.000000000000000000e+00 0.000000000000000000e+00 1.461300563812255859e+01
1.449183368682861328e+01 0.000000000000000000e+00 0.000000000000000000e+00 0.000000000000000000e+00 1.449183368682861328e+01 0.000000000000000000e+00 0.000000000000000000e+00 0.000000000000000000e+00 1.449183368682861328e+01
1.455132865905761719e+01 0.000000000000000000e+00 0.000000000000000000e+00 0.000000000000000000e+00 1.455132865905761719e+01 0.000000000000000000e+00 0.000000000000000000e+00 0.000000000000000000e+00 1.455132865905761719e+01
1.458373928070068359e+01 0.000000000000000000e+00 0.000000000000000000e+00 0.000000000000000000e+00 1.458373928070068359e+01 0.000000000000000000e+00 0.000000000000000000e+00 0.000000000000000000e+00 1.458373928070068359e+01
1.458111953735351562e+01 0.000000000000000000e+00 0.000000000000000000e+00 0.000000000000000000e+00 1.458111953735351562e+01 0.000000000000000000e+00 0.000000000000000000e+00 0.000000000000000000e+00 1.458111953735351562e+01
1.464088344573974609e+01 0.000000000000000000e+00 0.000000000000000000e+00 0.000000000000000000e+00 1.464088344573974609e+01 0.000000000000000000e+00 0.000000000000000000e+00 0.000000000000000000e+00 1.464088344573974609e+01
1.456845378875732422e+01 0.000000000000000000e+00 0.000000000000000000e+00 0.000000000000000000e+00 1.456845378875732422e+01 0.000000000000000000e+00 0.000000000000000000e+00 0.000000000000000000e+00 1.456845378875732422e+01
1.452954387664794922e+01 0.000000000000000000e+00 0.000000000000000000e+00 0.000000000000000000e+00 1.452954387664794922e+01 0.000000000000000000e+00 0.000000000000000000e+00 0.000000000000000000e+00 1.452954387664794922e+01
1.454604530334472656e+01 0.000000000000000000e+00 0.000000000000000000e+00 0.000000000000000000e+00 1.454604530334472656e+01 0.000000000000000000e+00 0.000000000000000000e+00 0.000000000000000000e+00 1.454604530334472656e+01
1.465240192413330078e+01 0.000000000000000000e+00 0.000000000000000000e+00 0.000000000000000000e+00 1.465240192413330078e+01 0.000000000000000000e+00 0.000000000000000000e+00 0.000000000000000000e+00 1.465240192413330078e+01
1.456445789337158203e+01 0.000000000000000000e+00 0.000000000000000000e+00 0.000000000000000000e+00 1.456445789337158203e+01 0.000000000000000000e+00 0.000000000000000000e+00 0.000000000000000000e+00 1.456445789337158203e+01
1.472257804870605469e+01 0.000000000000000000e+00 0.000000000000000000e+00 0.000000000000000000e+00 1.472257804870605469e+01 0.000000000000000000e+00 0.000000000000000000e+00 0.000000000000000000e+00 1.472257804870605469e+01
1.461581325531005859e+01 0.000000000000000000e+00 0.000000000000000000e+00 0.000000000000000000e+00 1.461581325531005859e+01 0.000000000000000000e+00 0.000000000000000000e+00 0.000000000000000000e+00 1.461581325531005859e+01
1.462321472167968750e+01 0.000000000000000000e+00 0.000000000000000000e+00 0.000000000000000000e+00 1.462321472167968750e+01 0.000000000000000000e+00 0.000000000000000000e+00 0.000000000000000000e+00 1.462321472167968750e+01
1.450309658050537109e+01 0.000000000000000000e+00 0.000000000000000000e+00 0.000000000000000000e+00 1.450309658050537109e+01 0.000000000000000000e+00 0.000000000000000000e+00 0.000000000000000000e+00 1.450309658050537109e+01
1.447516059875488281e+01 0.000000000000000000e+00 0.000000000000000000e+00 0.000000000000000000e+00 1.447516059875488281e+01 0.000000000000000000e+00 0.000000000000000000e+00 0.000000000000000000e+00 1.447516059875488281e+01
1.473934555053710938e+01 0.000000000000000000e+00 0.000000000000000000e+00 0.000000000000000000e+00 1.473934555053710938e+01 0.000000000000000000e+00 0.000000000000000000e+00 0.000000000000000000e+00 1.473934555053710938e+01
1.451247787475585938e+01 0.000000000000000000e+00 0.000000000000000000e+00 0.000000000000000000e+00 1.451247787475585938e+01 0.000000000000000000e+00 0.000000000000000000e+00 0.000000000000000000e+00 1.451247787475585938e+01
1.451079845428466797e+01 0.000000000000000000e+00 0.000000000000000000e+00 0.000000000000000000e+00 1.451079845428466797e+01 0.000000000000000000e+00 0.000000000000000000e+00 0.000000000000000000e+00 1.451079845428466797e+01
1.462830066680908203e+01 0.000000000000000000e+00 0.000000000000000000e+00 0.000000000000000000e+00 1.462830066680908203e+01 0.000000000000000000e+00 0.000000000000000000e+00 0.000000000000000000e+00 1.462830066680908203e+01
1.455503177642822266e+01 0.000000000000000000e+00 0.000000000000000000e+00 0.000000000000000000e+00 1.455503177642822266e+01 0.000000000000000000e+00 0.000000000000000000e+00 0.000000000000000000e+00 1.455503177642822266e+01
1.455072498321533203e+01 0.000000000000000000e+00 0.000000000000000000e+00 0.000000000000000000e+00 1.455072498321533203e+01 0.000000000000000000e+00 0.000000000000000000e+00 0.000000000000000000e+00 1.455072498321533203e+01
1.461711692810058594e+01 0.000000000000000000e+00 0.000000000000000000e+00 0.000000000000000000e+00 1.461711692810058594e+01 0.000000000000000000e+00 0.000000000000000000e+00 0.000000000000000000e+00 1.461711692810058594e+01
1.465562343597412109e+01 0.000000000000000000e+00 0.000000000000000000e+00 0.000000000000000000e+00 1.465562343597412109e+01 0.000000000000000000e+00 0.000000000000000000e+00 0.000000000000000000e+00 1.465562343597412109e+01
1.465734100341796875e+01 0.000000000000000000e+00 0.000000000000000000e+00 0.000000000000000000e+00 1.465734100341796875e+01 0.000000000000000000e+00 0.000000000000000000e+00 0.000000000000000000e+00 1.465734100341796875e+01
1.454127407073974609e+01 0.000000000000000000e+00 0.000000000000000000e+00 0.000000000000000000e+00 1.454127407073974609e+01 0.000000000000000000e+00 0.000000000000000000e+00 0.000000000000000000e+00 1.454127407073974609e+01
1.452102756500244141e+01 0.000000000000000000e+00 0.000000000000000000e+00 0.000000000000000000e+00 1.452102756500244141e+01 0.000000000000000000e+00 0.000000000000000000e+00 0.000000000000000000e+00 1.452102756500244141e+01
1.460918235778808594e+01 0.000000000000000000e+00 0.000000000000000000e+00 0.000000000000000000e+00 1.460918235778808594e+01 0.000000000000000000e+00 0.000000000000000000e+00 0.000000000000000000e+00 1.460918235778808594e+01
1.466381359100341797e+01 0.000000000000000000e+00 0.000000000000000000e+00 0.000000000000000000e+00 1.466381359100341797e+01 0.000000000000000000e+00 0.000000000000000000e+00 0.000000000000000000e+00 1.466381359100341797e+01
1.452648448944091797e+01 0.000000000000000000e+00 0.000000000000000000e+00 0.000000000000000000e+00 1.452648448944091797e+01 0.000000000000000000e+00 0.000000000000000000e+00 0.000000000000000000e+00 1.452648448944091797e+01
1.462296962738037109e+01 0.000000000000000000e+00 0.000000000000000000e+00 0.000000000000000000e+00 1.462296962738037109e+01 0.000000000000000000e+00 0.000000000000000000e+00 0.000000000000000000e+00 1.462296962738037109e+01
1.455235767364501953e+01 0.000000000000000000e+00 0.000000000000000000e+00 0.000000000000000000e+00 1.455235767364501953e+01 0.000000000000000000e+00 0.000000000000000000e+00 0.000000000000000000e+00 1.455235767364501953e+01
1.451517105102539062e+01 0.000000000000000000e+00 0.000000000000000000e+00 0.000000000000000000e+00 1.451517105102539062e+01 0.000000000000000000e+00 0.000000000000000000e+00 0.000000000000000000e+00 1.451517105102539062e+01
1.468914508819580078e+01 0.000000000000000000e+00 0.000000000000000000e+00 0.000000000000000000e+00 1.468914508819580078e+01 0.000000000000000000e+00 0.000000000000000000e+00 0.000000000000000000e+00 1.468914508819580078e+01
1.459949207305908203e+01 0.000000000000000000e+00 0.000000000000000000e+00 0.000000000000000000e+00 1.459949207305908203e+01 0.000000000000000000e+00 0.000000000000000000e+00 0.000000000000000000e+00 1.459949207305908203e+01
1.472603988647460938e+01 0.000000000000000000e+00 0.000000000000000000e+00 0.000000000000000000e+00 1.472603988647460938e+01 0.000000000000000000e+00 0.000000000000000000e+00 0.000000000000000000e+00 1.472603988647460938e+01
1.472616481781005859e+01 0.000000000000000000e+00 0.000000000000000000e+00 0.000000000000000000e+00 1.472616481781005859e+01 0.000000000000000000e+00 0.000000000000000000e+00 0.000000000000000000e+00 1.472616481781005859e+01
1.450214195251464844e+01 0.000000000000000000e+00 0.000000000000000000e+00 0.000000000000000000e+00 1.450214195251464844e+01 0.000000000000000000e+00 0.000000000000000000e+00 0.000000000000000000e+00 1.450214195251464844e+01
