7.222229957580566406e+00 5.507209777832031250e+00 1.133889961242675781e+01 5.466400146484375000e+00 1.201539993286132812e+01 1.071520042419433594e+01 1.391339969635009766e+01 6.992849826812744141e+00 1.202970027923583984e+01 1.408749961853027344e+01 1.494260025024414062e+01 1.332120037078857422e+01 7.305600047111511230e-01 9.444950103759765625e+00 1.389579963684082031e+01 3.580869913101196289e+00 4.404329776763916016e+00 1.039000034332275391e+01 9.513380050659179688e+00 1.169260025024414062e+01 1.086330032348632812e+01 8.103440284729003906e+00 2.834999859333038330e-01 1.463689994812011719e+01 9.565999984741210938e+00 1.497539997100830078e+01 5.594820022583007812e+00 1.171459960937500000e+01 7.893179893493652344e+00 1.837350010871887207e+00 1.296399974822998047e+01 1.275879955291748047e+01 3.619129896163940430e+00 5.765299797058105469e-01 6.946249961853027344e+00 1.514109969139099121e+00 1.379279994964599609e+01 3.132810115814208984e+00 1.137679958343505859e+01 1.422360038757324219e+01 9.034939765930175781e+00 1.742689967155456543e+00 4.146240234375000000e+00 6.809800267219543457e-01 2.198430061340332031e+00 7.394460201263427734e+00 8.428629875183105469e+00 8.768200278282165527e-01 5.073249816894531250e+00 5.298130035400390625e+00 1.158400058746337891e+00 5.940519809722900391e+00 1.006739997863769531e+01 2.254800081253051758e+00 1.190960025787353516e+01 5.410719871520996094e+00 9.293400049209594727e-01 9.072839736938476562e+00 1.191699981689453125e+01 1.490610003471374512e+00 9.111889839172363281e+00 4.878429889678955078e+00 8.421230316162109375e+00 4.851870059967041016e+00 1.445479965209960938e+01 1.113819980621337891e+01 1.534150028228759766e+01 8.988530158996582031e+00 1.117560005187988281e+01 1.501430034637451172e+01 6.737800240516662598e-01 1.118610000610351562e+01 3.467000126838684082e-01 1.029289960861206055e+00 2.650559902191162109e+00 3.150769948959350586e+00 1.308990001678466797e+01 4.150010108947753906e+00 1.225839996337890625e+01 1.514540004730224609e+01 4.615009784698486328e+00 1.331040024757385254e+00 6.053130149841308594e+00 3.847150087356567383e+00 3.497509956359863281e+00 6.046249866485595703e+00 1.420950031280517578e+01 2.375410079956054688e+00 1.147799968719482422e+01 1.494009971618652344e+01 1.141230010986328125e+01 6.654540061950683594e+00 1.315310001373291016e+01 1.003110027313232422e+01 4.227800071239471436e-01 1.292259979248046875e+01 1.410779953002929688e+01 3.612760066986083984e+00 8.736880302429199219e+00 2.422960042953491211e+00 1.086019992828369141e+01 8.048520088195800781e+00 9.643320083618164062e+00 2.213059902191162109e+00 8.659230232238769531e+00 7.438739776611328125e+00 8.410499572753906250e+00 7.686409950256347656e+00 3.448859930038452148e+00 9.888799786567687988e-01 6.611489772796630859e+00 5.688360214233398438e+00 1.027709960937500000e+01 8.499130249023437500e+00 1.394279956817626953e+01 6.171700000762939453e+00 9.487919807434082031e+00 1.157460021972656250e+01 1.348989963531494141e+01 7.887139797210693359e+00 2.143929958343505859e+00 1.500829982757568359e+01 1.447819995880126953e+01 1.557740020751953125e+01 1.038140010833740234e+01 3.632930040359497070e+00 5.501979827880859375e+00 1.381789970397949219e+01 3.177210092544555664e+00 6.595419883728027344e+00 1.228859996795654297e+01 1.179219961166381836e+00 8.427579879760742188e+00 3.637229919433593750e+00 1.865999996662139893e-01 6.828999996185302734e+00 1.345820045471191406e+01 1.438879966735839844e+01 1.315859985351562500e+01 1.560089945793151855e+00 2.806849956512451172e+00 1.105840015411376953e+01 1.366380023956298828e+01 3.924399912357330322e-01 6.209390163421630859e+00 6.143159866333007812e+00 8.565560340881347656e+00 1.099079966545104980e+00 1.381079959869384766e+01 5.758480072021484375e+00 1.442510032653808594e+01 7.164720058441162109e+00 6.858620166778564453e+00 8.560319900512695312e+00 8.589320182800292969e+00 5.348509788513183594e+00 6.588950157165527344e+00 2.624079942703247070e+00 1.397350025177001953e+01 6.224160194396972656e+00 9.352359771728515625e+00 1.385789966583251953e+01 1.507559967041015625e+01 4.730249881744384766e+00 1.292389965057373047e+01 1.381779956817626953e+01 9.693300247192382812e+00 1.479899978637695312e+01 4.678890228271484375e+00 2.531810045242309570e+00 3.594799935817718506e-01 4.234930038452148438e+00 9.693110466003417969e+00 1.809200048446655273e-01 9.582200050354003906e+00 3.876000046730041504e-01 1.110630035400390625e+00 1.003009986877441406e+01 9.315859794616699219e+00 4.348399937152862549e-01 1.131000041961669922e+01 6.094729900360107422e+00 9.634819984436035156e+00 8.976340293884277344e+00 1.324450016021728516e+01 8.808690071105957031e+00 2.981889963150024414e+00 3.441669940948486328e+00 7.818550109863281250e+00 3.176559925079345703e+00 1.063129997253417969e+01 1.135820007324218750e+01 2.365200072526931763e-01 2.900820016860961914e+00 6.648700237274169922e-01 1.555310010910034180e+00 1.194330024719238281e+01 2.003129959106445312e+00 9.050479888916015625e+00 2.998850107192993164e+00 2.698709964752197266e+00 1.088899993896484375e+01 9.160510063171386719e+00 4.382549762725830078e+00 1.277449989318847656e+01 3.172399997711181641e-01 7.125810146331787109e+00 4.373030185699462891e+00 8.052519798278808594e+00 2.667710065841674805e+00 1.365050029754638672e+01 1.398859977722167969e+01 1.046470046043395996e+00 8.964639663696289062e+00 6.499380111694335938e+00 3.670180082321166992e+00 5.045289993286132812e+00 7.047719955444335938e+00 4.989620208740234375e+00 3.857120037078857422e+00 1.085420036315917969e+01 5.369289875030517578e+00 1.181330013275146484e+01 2.909600019454956055e+00 7.374599933624267578e+00 9.911900162696838379e-01 1.360159969329833984e+01 8.472339630126953125e+00 5.109260082244873047e+00 7.390349864959716797e+00 1.259010028839111328e+01 2.914220094680786133e+00 1.542339992523193359e+01 9.126489639282226562e+00 1.183530044555664062e+01 1.138949966430664062e+01 1.216329956054687500e+01 1.125990009307861328e+01 2.963799953460693359e+00 1.230790042877197266e+01 4.011229991912841797e+00 4.809279918670654297e+00 3.422250032424926758e+00 4.356450080871582031e+00 2.010610103607177734e+00 4.470590114593505859e+00 1.509879970550537109e+01 4.792140007019042969e+00 5.747449874877929688e+00 5.916729927062988281e+00 1.555309963226318359e+01 7.452099800109863281e+00 2.230910062789916992e+00 8.846980094909667969e+00 4.603010177612304688e+00 7.524600028991699219e+00 1.328769969940185547e+01 4.929110050201416016e+00 4.029200077056884766e-01 2.823080062866210938e+00 7.223380088806152344e+00 1.399300003051757812e+01 1.123519992828369141e+01 1.077579975128173828e+01 8.003499984741210938e+00 1.374019980430603027e+00 6.622710227966308594e+00 6.598480224609375000e+00 1.050959968566894531e+01 4.975049972534179688e+00 1.304609966278076172e+01 3.503599882125854492e+00 4.782120227813720703e+00 1.332320022583007812e+01 1.149250030517578125e+01 7.918290138244628906e+00 2.189630031585693359e+00 2.256439924240112305e+00 1.473830032348632812e+01 2.496890068054199219e+00 7.877039909362792969e+00 1.551070022583007812e+01 1.169410037994384766e+01 1.748800039291381836e+00 7.401300072669982910e-01 1.129319953918457031e+01 9.451829910278320312e+00 1.366819953918457031e+01 7.320849895477294922e+00 5.561270236968994141e+00 5.606709957122802734e+00 6.965809822082519531e+00 1.271490001678466797e+01 7.393489837646484375e+00 1.613819956779479980e+00 7.563459873199462891e+00 7.076250076293945312e+00 1.406089973449707031e+01 1.464029979705810547e+01 9.024900436401367188e+00 5.912919998168945312e+00 3.031840085983276367e+00 1.151669979095458984e+01 1.493710041046142578e+01 1.206830024719238281e+01 1.537829971313476562e+01 1.078789997100830078e+01 3.997629880905151367e+00 1.477210044860839844e+01 1.172999954223632812e+01 1.404069995880126953e+01 1.330900001525878906e+01 1.462500000000000000e+01 5.164770126342773438e+00 1.799599975347518921e-01 1.410319995880126953e+01 7.925099730491638184e-01 1.553260040283203125e+01 7.783760070800781250e+00 5.883820056915283203e+00 1.502470016479492188e+00 8.888099789619445801e-01 1.234700012207031250e+01 1.091219997406005859e+01 2.075330018997192383e+00 1.461019992828369141e+01 1.458330035209655762e+00 1.456719970703125000e+01 1.226620006561279297e+01 5.677939891815185547e+00 1.047949981689453125e+01 1.185760021209716797e+01 3.814549922943115234e+00 1.094880008697509766e+01 4.803870201110839844e+00 3.497539997100830078e+00 8.996749877929687500e+00 9.113439559936523438e+00 9.884220123291015625e+00 6.372920036315917969e+00 7.309899926185607910e-01 1.023789978027343750e+01 2.109030008316040039e+00 8.704719543457031250e+00 9.423310279846191406e+00 1.964560031890869141e+00 9.975500106811523438e-01 1.138360023498535156e+01 4.113160133361816406e+00 7.026179790496826172e+00 1.012670040130615234e+01 4.213809967041015625e+00 1.343490028381347656e+01 1.370209980010986328e+01 1.152029991149902344e+01 8.970589637756347656e+00 9.754130363464355469e+00 9.056300163269042969e+00 2.328200042247772217e-01 1.024510002136230469e+01 9.793009757995605469e+00 5.150259971618652344e+00 1.173320007324218750e+01 7.207759857177734375e+00 1.141390037536621094e+01 1.262650012969970703e+01 2.094769954681396484e+00 4.252460002899169922e+00 1.283660030364990234e+01 5.543000102043151855e-01 1.339659976959228516e+01 1.328880023956298828e+01 9.612600207328796387e-01 8.248999714851379395e-01 5.474780082702636719e+00 3.772069931030273438e+00 5.871540069580078125e+00 6.916349887847900391e+00 7.118020057678222656e+00 3.007689952850341797e+00 4.811520099639892578e+00 1.272399997711181641e+01 9.189049720764160156e+00 6.601920127868652344e+00 6.988619804382324219e+00 5.698500156402587891e+00 1.040839958190917969e+01 5.653999805450439453e+00 1.132909965515136719e+01 1.003359985351562500e+01 1.405780029296875000e+01 6.792900085449218750e+00 1.101850032806396484e+01 1.423429965972900391e+01 1.548799991607666016e+01 1.251060009002685547e+01 6.597390174865722656e+00 6.006189823150634766e+00 1.194849967956542969e+01 6.125420093536376953e+00 1.179059982299804688e+01 1.146039962768554688e+01 1.298289966583251953e+01 6.690559864044189453e+00 1.217780017852783203e+01 1.491049957275390625e+01 1.432359981536865234e+01 1.325730037689208984e+01 1.544509983062744141e+01 9.450900077819824219e+00 1.418389987945556641e+01 3.412070035934448242e+00 3.984659910202026367e+00 9.533269882202148438e+00 9.170209884643554688e+00 1.082409954071044922e+01 1.039659976959228516e+01 7.690919876098632812e+00 1.503069972991943359e+01 1.455449962615966797e+01 6.504399776458740234e-01 9.215180397033691406e+00 1.297959995269775391e+01 4.335229873657226562e+00 3.918849945068359375e+00 1.080570030212402344e+01 1.046599960327148438e+01 1.156859970092773438e+01 1.103979969024658203e+01 7.603909969329833984e+00 1.017040014266967773e+00 1.418700027465820312e+01 8.851409912109375000e+00 1.430770015716552734e+01 5.372389793395996094e+00 1.110649967193603516e+01 8.682220458984375000e+00 3.545259952545166016e+00 1.281169986724853516e+01 1.366959953308105469e+01 3.985850095748901367e+00 6.926400065422058105e-01 6.518569946289062500e+00 2.369009971618652344e+00 9.042730331420898438e+00 1.061500012874603271e-01 5.914450168609619141e+00 1.111499977111816406e+01 8.468759536743164062e+00 1.300430059432983398e+00 1.341030025482177734e+01 1.284319972991943359e+01 2.760440111160278320e+00 1.466580033302307129e+00 7.145040035247802734e+00 1.217800021171569824e+00 1.429520034790039062e+01 2.317579984664916992e+00 1.132089996337890625e+01 1.491409969329833984e+01 8.335570335388183594e+00 1.649099946022033691e+00 3.416100025177001953e+00 8.247999846935272217e-02 1.967339992523193359e+00 6.817440032958984375e+00 8.518489837646484375e+00 1.434199959039688110e-01 1.285109996795654297e+01 3.005399942398071289e+00 1.163210010528564453e+01 1.403559970855712891e+01 9.324199676513671875e+00 7.973799705505371094e-01 4.427370071411132812e+00 1.338279962539672852e+00 1.490049958229064941e+00 7.018179893493652344e+00 9.131299972534179688e+00 1.488090038299560547e+00 6.031599998474121094e+00 5.517069816589355469e+00 1.424260020256042480e+00 5.123050212860107422e+00 9.436860084533691406e+00 2.251280069351196289e+00 1.286359977722167969e+01 5.399940013885498047e+00 7.283300161361694336e-01 8.078269958496093750e+00 1.197729969024658203e+01 1.400560021400451660e+00 4.862329959869384766e+00 5.502460002899169922e+00 2.295400053262710571e-01 6.091040134429931641e+00 1.029640007019042969e+01 3.219379901885986328e+00 1.175109958648681641e+01 6.264110088348388672e+00 1.391610026359558105e+00 9.322549819946289062e+00 1.175739955902099609e+01 2.413990020751953125e+00 8.366000175476074219e+00 4.858779907226562500e+00 7.796470165252685547e+00 4.136380195617675781e+00 1.460529994964599609e+01 1.054629993438720703e+01 1.476029968261718750e+01 9.671999931335449219e+00 1.081900024414062500e+01 1.483250045776367188e+01 1.875299960374832153e-01 1.037849998474121094e+01 9.386039733886718750e+00 3.970429897308349609e+00 8.477379798889160156e+00 5.299950122833251953e+00 1.361040019989013672e+01 1.085470008850097656e+01 1.483559989929199219e+01 8.435779571533203125e+00 1.178339958190917969e+01 3.312200009822845459e-01 9.382100105285644531e-01 1.122130012512207031e+01 5.259000062942504883e-01 2.604100108146667480e-01 2.050519943237304688e+00 2.460629940032958984e+00 1.330770015716552734e+01 4.844930171966552734e+00 1.128320026397705078e+01 1.506680011749267578e+01 4.792049884796142578e+00 1.266399955749511719e+01 8.197489738464355469e+00 1.879089951515197754e+00 5.839899778366088867e-01 1.849050045013427734e+00 2.186630010604858398e+00 2.790529966354370117e+00 1.289859962463378906e+01 3.238670110702514648e+00 1.309319972991943359e+01 2.691489934921264648e+00 4.159409999847412109e+00 2.211380004882812500e+00 5.630790233612060547e+00 4.067369937896728516e+00 2.994329929351806641e+00 5.361310005187988281e+00 1.371920013427734375e+01 2.819119930267333984e+00 1.223260021209716797e+01 1.458769989013671875e+01 1.074470043182373047e+01 6.062409877777099609e+00 1.278590011596679688e+01 1.049979972839355469e+01 1.519040012359619141e+01 1.312170028686523438e+01 4.003180027008056641e+00 6.553599834442138672e+00 1.353419971466064453e+01 1.688609957695007324e+00 1.110760021209716797e+01 1.436769962310791016e+01 1.149750041961669922e+01 6.339190006256103516e+00 1.406200027465820312e+01 9.350790023803710938e+00 5.246999859809875488e-01 1.359599971771240234e+01 1.038779973983764648e+00 9.366400241851806641e-01 4.546380043029785156e+00 1.704059958457946777e+00 1.146490001678466797e+01 8.103019714355468750e+00 1.054129981994628906e+01 2.205060005187988281e+00 8.283679962158203125e+00 7.015999794006347656e+00 7.561800003051757812e+00 7.810550212860107422e+00 1.492090034484863281e+01 3.199970006942749023e+00 8.327819824218750000e+00 2.824470043182373047e+00 1.106550025939941406e+01 7.192870140075683594e+00 4.953159809112548828e+00 1.427800059318542480e-01 7.281670093536376953e+00 7.828730106353759766e+00 8.351819992065429688e+00 6.787230014801025391e+00 2.516419887542724609e+00 8.007900118827819824e-01 6.412819862365722656e+00 4.733540058135986328e+00 1.019750022888183594e+01 8.227869987487792969e+00 1.298840045928955078e+01 6.145939826965332031e+00 9.483650207519531250e+00 1.057759952545166016e+01 1.333269977569580078e+01 7.951499938964843750e+00 3.766410112380981445e+00 1.326990008354187012e+00 5.726290225982666016e+00 6.216690063476562500e+00 9.558389663696289062e+00 8.038339614868164062e+00 1.418659973144531250e+01 5.214019775390625000e+00 9.387639999389648438e+00 1.166530036926269531e+01 1.433839988708496094e+01 7.415190219879150391e+00 1.365679979324340820e+00 1.454450035095214844e+01 1.412539958953857422e+01 1.482660007476806641e+01 1.007219982147216797e+01 3.103130102157592773e+00 4.688489913940429688e+00 1.351760005950927734e+01 3.619839906692504883e+00 6.123610019683837891e+00 1.143939971923828125e+01 1.359809994697570801e+00 1.985219955444335938e+00 3.421800136566162109e-01 1.453120040893554688e+01 1.530539989471435547e+01 1.099129962921142578e+01 4.391329765319824219e+00 5.343989849090576172e+00 1.460869979858398438e+01 2.686130046844482422e+00 6.257800102233886719e+00 1.293190002441406250e+01 1.855110049247741699e+00 8.153590202331542969e+00 4.527170181274414062e+00 5.600500106811523438e-01 5.905539989471435547e+00 1.357979965209960938e+01 1.410480022430419922e+01 1.405329990386962891e+01 1.310340046882629395e+00 2.623990058898925781e+00 1.078540039062500000e+01 1.451159954071044922e+01 6.697599887847900391e-01 8.472330093383789062e+00 3.178420066833496094e+00 1.912289977073669434e+00 6.628719806671142578e+00 1.302120018005371094e+01 1.521319961547851562e+01 1.269699954986572266e+01 1.845720052719116211e+00 2.020649909973144531e+00 1.039809989929199219e+01 1.296100044250488281e+01 6.839399933815002441e-01 5.805940151214599609e+00 6.070990085601806641e+00 7.675769805908203125e+00 2.372799962759017944e-01 1.332170009613037109e+01 5.587800025939941406e+00 1.431140041351318359e+01 6.943200111389160156e+00 7.826159954071044922e+00 7.916150093078613281e+00 9.325519561767578125e+00 5.274610042572021484e+00 5.430650234222412109e+00 6.460909843444824219e+00 9.103839874267578125e+00 1.246180057525634766e+00 1.358409976959228516e+01 6.711259841918945312e+00 1.539700031280517578e+01 7.443399906158447266e+00 6.760469913482666016e+00 6.801390171051025391e+00 1.366639995574951172e+01 4.336460113525390625e+00 5.839079856872558594e+00 2.552400112152099609e+00 1.461460018157958984e+01 5.508659839630126953e+00 9.771809577941894531e+00 1.439210033416748047e+01 1.455319976806640625e+01 4.003779888153076172e+00 1.257950019836425781e+01 1.304259967803955078e+01 9.475119590759277344e+00 1.427509975433349609e+01 7.564909934997558594e+00 3.382390022277832031e+00 1.534420013427734375e+01 6.649400234222412109e+00 1.011009979248046875e+01 1.337539958953857422e+01 1.471590042114257812e+01 5.571330070495605469e+00 1.249110031127929688e+01 1.383180046081542969e+01 1.075609970092773438e+01 1.471360015869140625e+01 3.832289934158325195e+00 2.608910083770751953e+00 1.542609977722167969e+01 3.663419961929321289e+00 8.902560234069824219e+00 8.043999969959259033e-02 9.259110450744628906e+00 9.326800107955932617e-01 1.882750034332275391e+00 9.253640174865722656e+00 8.762660026550292969e+00 4.431900084018707275e-01 4.877580165863037109e+00 3.427200078964233398e+00 7.800800204277038574e-01 3.713429927825927734e+00 1.039029979705810547e+01 1.537310028076171875e+01 9.115039825439453125e+00 5.812799930572509766e-01 2.517600059509277344e-01 9.734399795532226562e+00 1.012740039825439453e+01 8.982300162315368652e-01 9.466030120849609375e+00 1.499969959259033203e+00 9.317489624023437500e+00 9.196140289306640625e+00 1.270769977569580078e+01 9.626259803771972656e+00 2.042819976806640625e+00 3.291610002517700195e+00 7.673779964447021484e+00 3.964109897613525391e+00 1.122599983215332031e+01 1.122169971466064453e+01 1.075500011444091797e+01 5.803430080413818359e+00 1.037290000915527344e+01 8.833950042724609375e+00 1.417010021209716797e+01 9.102279663085937500e+00 3.328039884567260742e+00 2.629920005798339844e+00 7.420559883117675781e+00 3.352950096130371094e+00 1.015590000152587891e+01 1.216989994049072266e+01 1.538210010528564453e+01 3.704370021820068359e+00 3.829999864101409912e-01 1.193570017814636230e+00 1.121920013427734375e+01 2.563369989395141602e+00 1.015359973907470703e+01 4.299890041351318359e+00 3.277699947357177734e+00 1.093490028381347656e+01 1.010809993743896484e+01 4.084000110626220703e+00 1.539190006256103516e+01 2.114579916000366211e+00 3.693499863147735596e-01 2.007740020751953125e+00 1.148200035095214844e+01 1.232710003852844238e+00 8.369959831237792969e+00 3.029900074005126953e+00 3.390959978103637695e+00 1.206340026855468750e+01 9.104929924011230469e+00 5.873539924621582031e+00 1.247200012207031250e+01 1.221909999847412109e+00 7.345530033111572266e+00 4.597740173339843750e+00 7.725399971008300781e+00 3.527029991149902344e+00 9.445260047912597656e+00 8.897580146789550781e+00 5.088220119476318359e+00 9.903140068054199219e+00 6.225580215454101562e+00 3.614259958267211914e+00 1.272770023345947266e+01 1.558769989013671875e+01 6.251810073852539062e+00 4.649519920349121094e+00 7.322040081024169922e+00 2.055419921875000000e+00 1.272879981994628906e+01 1.368739986419677734e+01 7.330600023269653320e-01 8.874099731445312500e+00 7.310540199279785156e+00 4.164720058441162109e+00 5.979109764099121094e+00 6.683360099792480469e+00 5.056359767913818359e+00 3.387929916381835938e+00 1.009500026702880859e+01 4.937389850616455078e+00 1.260079956054687500e+01 3.095580101013183594e+00 7.944779872894287109e+00 1.078760027885437012e+00 1.316849994659423828e+01 9.330690383911132812e+00 4.561319828033447266e+00 6.529679775238037109e+00 5.745590209960937500e+00 3.563600063323974609e+00 1.165439987182617188e+01 4.916729927062988281e+00 1.085099983215332031e+01 5.877460002899169922e+00 8.802040100097656250e+00 6.332000344991683960e-02 1.396479988098144531e+01 8.513589859008789062e+00 5.599030017852783203e+00 8.171210289001464844e+00 1.292969989776611328e+01 3.156869888305664062e+00 4.259099960327148438e-01 8.473079681396484375e+00 1.191009998321533203e+01 1.225489997863769531e+01 1.258979988098144531e+01 1.138640022277832031e+01 3.381180047988891602e+00 1.320820045471191406e+01 4.917689800262451172e+00 7.527319908142089844e+00 1.162069988250732422e+01 2.133759975433349609e+00 1.506159973144531250e+01 8.658579826354980469e+00 1.156459999084472656e+01 1.069390010833740234e+01 1.274129962921142578e+01 1.094069957733154297e+01 2.042870044708251953e+00 1.243659973144531250e+01 4.200799942016601562e+00 5.059790134429931641e+00 2.491770029067993164e+00 4.327420234680175781e+00 1.373559951782226562e+00 3.633150100708007812e+00 1.485550022125244141e+01 5.726779937744140625e+00 5.848820209503173828e+00 6.025760173797607422e+00 1.459609985351562500e+01 7.288959980010986328e+00 4.678140163421630859e+00 5.370130062103271484e+00 3.888289928436279297e+00 4.036290168762207031e+00 2.941839933395385742e+00 4.202680110931396484e+00 6.534399986267089844e-01 5.552320003509521484e+00 4.406650066375732422e+00 1.245349979400634766e+01 2.654399871826171875e-01 4.034910202026367188e+00 2.528919935226440430e+00 8.044059753417968750e+00 4.154689788818359375e+00 7.083759784698486328e+00 1.315410041809082031e+01 5.819310188293457031e+00 3.329100012779235840e-01 1.999690055847167969e+00 6.756420135498046875e+00 1.319799995422363281e+01 1.129069995880126953e+01 1.134020042419433594e+01 1.476699948310852051e+00 9.221209526062011719e+00 4.161159992218017578e+00 7.726870059967041016e+00 1.294060039520263672e+01 8.046919822692871094e+00 1.321299970149993896e-01 3.574729919433593750e+00 6.621049880981445312e+00 1.382009983062744141e+01 1.117730045318603516e+01 9.803939819335937500e+00 8.612420082092285156e+00 1.688580036163330078e+00 7.344649791717529297e+00 6.833419799804687500e+00 1.145320034027099609e+01 4.938000202178955078e+00 1.195259952545166016e+01 3.348469972610473633e+00 6.513269901275634766e+00 1.257839965820312500e+01 1.219999980926513672e+01 7.888969898223876953e+00 7.268569946289062500e+00 7.659800052642822266e-01 6.868720054626464844e+00 5.640299797058105469e+00 1.050230026245117188e+01 5.202310085296630859e+00 1.398429965972900391e+01 3.194099903106689453e+00 9.677519798278808594e+00 1.310249996185302734e+01 1.066800022125244141e+01 7.390160083770751953e+00 1.595070004463195801e+00 2.647639989852905273e+00 1.541679954528808594e+01 2.853849887847900391e+00 7.055900096893310547e+00 1.505519962310791016e+01 1.157129955291748047e+01 2.590569972991943359e+00 1.579799950122833252e-01 1.123279953002929688e+01 8.529150009155273438e+00 1.331200027465820312e+01 2.132649898529052734e+00 2.902280092239379883e+00 1.397990036010742188e+01 1.866230010986328125e+00 8.245269775390625000e+00 1.490820026397705078e+01 1.083780002593994141e+01 1.333840012550354004e+00 8.998000025749206543e-01 1.047049999237060547e+01 9.572480201721191406e+00 1.420750045776367188e+01 7.137969970703125000e+00 4.650969982147216797e+00 5.273270130157470703e+00 6.440869808197021484e+00 1.195230007171630859e+01 7.772379875183105469e+00 1.786800026893615723e+00 8.103509902954101562e+00 6.247099876403808594e+00 1.358580017089843750e+01 1.518120002746582031e+01 8.256050109863281250e+00 8.065509796142578125e+00 5.811689853668212891e+00 5.046440124511718750e+00 6.213419914245605469e+00 4.778200089931488037e-01 9.334930419921875000e+00 1.603240013122558594e+00 8.136659622192382812e+00 7.927690029144287109e+00 1.338949966430664062e+01 1.409370040893554688e+01 9.388279914855957031e+00 6.251249790191650391e+00 2.756089925765991211e+00 1.306949996948242188e+01 1.443710041046142578e+01 1.285389995574951172e+01 1.945199966430664062e-01 1.115789985656738281e+01 4.623939990997314453e+00 1.545759963989257812e+01 1.150360012054443359e+01 1.382250022888183594e+01 1.425300025939941406e+01 6.676119804382324219e+00 3.594799995422363281e+00 1.144979953765869141e+01 2.646999992430210114e-02 1.179399967193603516e+01 4.448800086975097656e-01 9.767669677734375000e+00 3.902499914169311523e+00 1.490690040588378906e+01 1.263710021972656250e+01 1.433959960937500000e+01 1.335400009155273438e+01 1.457730007171630859e+01 5.103300094604492188e+00 1.484029960632324219e+01 1.319079971313476562e+01 1.241590023040771484e+00 1.555609989166259766e+01 7.663330078125000000e+00 6.825240135192871094e+00 1.289160013198852539e+00 1.574970006942749023e+00 1.163949966430664062e+01 1.102649974822998047e+01 1.527999973297119141e+01 5.832089900970458984e+00 4.973399937152862549e-01 1.410400009155273438e+01 2.228800058364868164e-01 1.465530014038085938e+01 8.140250205993652344e+00 5.947669982910156250e+00 2.496160030364990234e+00 1.558749961853027344e+01 1.195600032806396484e+01 1.082830047607421875e+01 1.574779987335205078e+00 1.389009952545166016e+01 1.813879966735839844e+00 1.431560039520263672e+01 1.194719982147216797e+01 6.566100120544433594e+00 1.140830039978027344e+01 1.221370029449462891e+01 3.561810016632080078e+00 1.441979980468750000e+01 4.385930061340332031e+00 5.250140190124511719e+00 2.032380104064941406e+00 1.467640018463134766e+01 4.575999975204467773e-01 1.385149955749511719e+01 1.233679962158203125e+01 5.030129909515380859e+00 9.948789596557617188e+00 1.255039978027343750e+01 4.242730140686035156e+00 1.133619976043701172e+01 4.945600032806396484e+00 2.615250110626220703e+00 9.962140083312988281e+00 8.901479721069335938e+00 9.752790451049804688e+00 5.744200229644775391e+00 7.173000276088714600e-02 1.078639984130859375e+01 1.491160035133361816e+00 8.578029632568359375e+00 1.018159961700439453e+01 2.463330030441284180e+00 1.817090034484863281e+00 1.131260013580322266e+01 8.588740348815917969e+00 8.897459983825683594e+00 9.017550468444824219e+00 6.019750118255615234e+00 2.180690050125122070e+00 1.100020027160644531e+01 2.156359910964965820e+00 9.636110305786132812e+00 9.294179916381835938e+00 2.156349897384643555e+00 3.741999864578247070e-01 1.067080020904541016e+01 3.756750106811523438e+00 6.050930023193359375e+00 1.027400016784667969e+01 4.331900119781494141e+00 1.365320014953613281e+01 1.274750041961669922e+01 1.162860012054443359e+01 7.968490123748779297e+00 9.640720367431640625e+00 8.053380012512207031e+00 3.360899984836578369e-01 1.040240001678466797e+01 3.404589891433715820e+00 7.593009948730468750e+00 9.666959762573242188e+00 3.710949897766113281e+00 1.418099975585937500e+01 1.412530040740966797e+01 1.165460014343261719e+01 9.502429962158203125e+00 8.967820167541503906e+00 9.522669792175292969e+00 3.818300068378448486e-01 1.109770011901855469e+01 9.991490364074707031e+00 4.235710144042968750e+00 1.200139999389648438e+01 7.245419979095458984e+00 1.214750003814697266e+01 1.322449970245361328e+01 1.144080042839050293e+00 4.480150222778320312e+00 1.281540012359619141e+01 7.380099892616271973e-01 1.281709957122802734e+01 1.245699977874755859e+01 8.844739913940429688e+00 5.297490119934082031e+00 1.160700035095214844e+01 7.954179763793945312e+00 1.144629955291748047e+01 1.197280025482177734e+01 2.552210092544555664e+00 4.349289894104003906e+00 1.196700000762939453e+01 2.195699959993362427e-01 1.285120010375976562e+01 1.407730007171630859e+01 1.218439960479736328e+01 3.864619970321655273e+00 4.585969924926757812e+00 3.045249938964843750e+00 6.472780227661132812e+00 7.176410198211669922e+00 7.471809864044189453e+00 2.454760074615478516e+00 5.512810230255126953e+00 1.362489986419677734e+01 1.494050025939941406e+01 8.312199711799621582e-01 8.364499807357788086e-01 1.546170043945312500e+01 5.537270069122314453e+00 3.476969957351684570e+00 4.975170135498046875e+00 7.006830215454101562e+00 6.215419769287109375e+00 2.749619960784912109e+00 4.625360012054443359e+00 1.341160011291503906e+01 8.468919754028320312e+00 6.572700023651123047e+00