-6.755009889602661133e-01 9.432300180196762085e-02 7.884219884872436523e-01 5.253130197525024414e-01 -5.023419857025146484e-01 6.096019744873046875e-01 1.144940033555030823e-01 -7.955949902534484863e-01 -1.256857991218566895e+00 9.572529792785644531e-01 -2.662140130996704102e-01 -7.311400026082992554e-02 1.747210025787353516e+00 2.727130055427551270e-01 8.729280233383178711e-01 2.127199992537498474e-02 1.934600062668323517e-02 1.367073059082031250e+00 -1.862969994544982910e+00 -9.387289881706237793e-01 -1.186450958251953125e+00 3.212389945983886719e-01 1.385447978973388672e+00 -7.704800367355346680e-02 3.186660110950469971e-01 -1.053539037704467773e+00 -4.352320134639739990e-01 2.531650066375732422e-01 -7.743719816207885742e-01 1.195783019065856934e+00 -1.284749954938888550e-01 -6.671599745750427246e-01 2.185080051422119141e-01 -1.772534012794494629e+00 1.410519927740097046e-01 -7.338230013847351074e-01 -4.501299932599067688e-02 1.268833041191101074e+00 -4.388459920883178711e-01 -2.723020017147064209e-01 -1.323820054531097412e-01 -3.300899863243103027e-01 1.335924029350280762e+00 2.158489972352981567e-01 6.596220135688781738e-01 1.328119993209838867e+00 -1.531299948692321777e-01 1.321939945220947266e+00 5.539510250091552734e-01 -1.025360003113746643e-01 2.354760020971298218e-01 -7.017760276794433594e-01 -6.639000028371810913e-02 8.124650120735168457e-01 -1.185849979519844055e-01 -3.817180097103118896e-01 3.136090040206909180e-01 9.733890295028686523e-01 -4.887079894542694092e-01 -9.279739856719970703e-01 -4.410719871520996094e-01 1.558773994445800781e+00 -3.333019912242889404e-01 1.332759976387023926e+00 1.662849932909011841e-01 1.598358035087585449e+00 2.101238012313842773e+00 -3.511509895324707031e-01 -1.107110008597373962e-01 -9.705510139465332031e-01 6.740289926528930664e-01 7.951329946517944336e-01 -3.224090039730072021e-01 -9.167860150337219238e-01 4.885300099849700928e-01 3.937560021877288818e-01 -1.207540035247802734e-01 -3.717229962348937988e-01 -1.904769986867904663e-01 -1.198086977005004883e+00 8.132069706916809082e-01 -2.640100009739398956e-02 -9.810600280761718750e-01 1.190577030181884766e+00 6.177870035171508789e-01 -6.048330068588256836e-01 5.542259812355041504e-01 -2.902269959449768066e-01 -1.138671994209289551e+00 1.607154965400695801e+00 9.686030149459838867e-01 1.060783028602600098e+00 5.931010246276855469e-01 1.232056021690368652e+00 1.895489990711212158e-01 -1.401589989662170410e+00 -5.344070196151733398e-01 -9.150919914245605469e-01 1.791064977645874023e+00 9.225550293922424316e-01 -5.323340296745300293e-01 9.133599698543548584e-02 -7.541840076446533203e-01 4.600310027599334717e-01 -5.579100251197814941e-01 7.593400031328201294e-02 1.257074952125549316e+00 -3.317999839782714844e-02 4.352680146694183350e-01 -2.460259944200515747e-01 1.070615053176879883e+00 -1.132063984870910645e+00 3.935509920120239258e-01 -2.550930082798004150e-01 1.995020985603332520e+00 4.216470122337341309e-01 -3.055600076913833618e-02 -1.124166011810302734e+00 -4.197889864444732666e-01 5.658600106835365295e-02 8.921020030975341797e-01 3.323850035667419434e-01 1.083354949951171875e+00 1.069350004196166992e+00 9.218199849128723145e-01 1.389788985252380371e+00 1.677871942520141602e+00 -1.237128973007202148e+00 3.075659871101379395e-01 -2.182359993457794189e-01 8.607360124588012695e-01 -5.491849780082702637e-01 -2.067996978759765625e+00 1.947109997272491455e-01 -3.779680132865905762e-01 7.877479791641235352e-01 6.556609869003295898e-01 -1.267544031143188477e+00 -6.398360133171081543e-01 -1.752240061759948730e-01 2.885782003402709961e+00 8.626829981803894043e-01 -2.940257072448730469e+00 -1.027053952217102051e+00 -3.264200091361999512e-01 1.528400033712387085e-01 -9.021300077438354492e-02 2.182099968194961548e-02 -3.700760006904602051e-01 1.808699965476989746e-01 1.037973046302795410e+00 5.434209704399108887e-01 -1.236359998583793640e-01 -9.211189746856689453e-01 -6.682189702987670898e-01 1.359940022230148315e-01 7.142329812049865723e-01 -5.075780153274536133e-01 1.603273034095764160e+00 -8.256999775767326355e-03 2.551839947700500488e-01 1.692679971456527710e-01 1.016564965248107910e+00 1.675572991371154785e+00 1.177942991256713867e+00 6.499119997024536133e-01 3.094818115234375000e+00 -6.552399694919586182e-02 1.530000008642673492e-02 8.725479841232299805e-01 -1.994349956512451172e-01 1.340996026992797852e+00 7.218570113182067871e-01 -1.708800047636032104e-01 3.510420024394989014e-01 1.843779981136322021e-01 1.084846019744873047e+00 1.042520999908447266e+00 6.360949873924255371e-01 -1.022009998559951782e-01 1.081042051315307617e+00 9.516649842262268066e-01 -8.248590230941772461e-01 3.719900175929069519e-02 5.649480223655700684e-01 -2.897329926490783691e-01 9.564129710197448730e-01 7.359660267829895020e-01 6.387529969215393066e-01 -2.779450118541717529e-01 7.514330148696899414e-01 -5.220980048179626465e-01 1.310060024261474609e+00 -1.079609990119934082e-01 7.880830168724060059e-01 5.185199975967407227e-01 -6.330959796905517578e-01 -9.011579751968383789e-01 -5.295699834823608398e-01 -5.774499848484992981e-02 -3.178020119667053223e-01 6.228280067443847656e-01 4.936090111732482910e-01 -6.454049944877624512e-01 8.601350188255310059e-01 -4.734910130500793457e-01 3.180273056030273438e+00 -7.020490169525146484e-01 -1.442050039768218994e-01 -2.717036962509155273e+00 -1.083801984786987305e+00 -1.461717963218688965e+00 -1.626719981431961060e-01 -9.864799678325653076e-02 -1.101773977279663086e+00 -5.390009880065917969e-01 4.497599899768829346e-01 -9.272379875183105469e-01 6.564819812774658203e-01 4.966549873352050781e-01 -1.166813015937805176e+00 1.012261986732482910e+00 -3.715499863028526306e-02 -4.831019937992095947e-01 3.577809929847717285e-01 -5.046920180320739746e-01 7.793009877204895020e-01 -1.108103990554809570e+00 -6.056199967861175537e-02 -8.457670211791992188e-01 -9.374459981918334961e-01 -7.042520046234130859e-01 -1.028527021408081055e+00 9.692339897155761719e-01 1.094568967819213867e+00 1.879376053810119629e+00 -2.471764087677001953e+00 4.428949952125549316e-01 2.836979925632476807e-01 -4.430700093507766724e-02 7.472199946641921997e-02 -6.109999958425760269e-03 9.955080151557922363e-01 3.190000134054571390e-04 6.179149746894836426e-01 -1.178794026374816895e+00 2.755240917205810547e+00 7.946019768714904785e-01 4.656870067119598389e-01 -7.200160026550292969e-01 1.289490014314651489e-01 1.915049999952316284e-01 1.205680012702941895e+00 -1.710509955883026123e-01 1.377642989158630371e+00 -9.234880208969116211e-01 1.245400011539459229e-01 -4.622910022735595703e-01 4.227499961853027344e-01 1.452069044113159180e+00 1.177036046981811523e+00 2.109644889831542969e+00 1.462099999189376831e-01 -1.285655975341796875e+00 5.481749773025512695e-01 1.534170061349868774e-01 -9.059849977493286133e-01 -6.416600197553634644e-02 -3.568710088729858398e-01 -4.068410098552703857e-01 7.603889703750610352e-01 -1.771379947662353516e+00 -1.498840004205703735e-01 -5.660200119018554688e-02 2.082470059394836426e-01 2.855440080165863037e-01 1.134228944778442383e+00 5.200999975204467773e-02 -7.579550147056579590e-01 5.152099728584289551e-01 -6.980720162391662598e-01 1.600824952125549316e+00 2.045176029205322266e+00 2.684588909149169922e+00 -1.752020955085754395e+00 -5.433850288391113281e-01 -5.223209857940673828e-01 -4.044400155544281006e-02 -7.234510183334350586e-01 1.002900023013353348e-02 4.991619884967803955e-01 -9.604640007019042969e-01 -8.328600227832794189e-02 5.192710161209106445e-01 -3.478789925575256348e-01 5.399580001831054688e-01 6.346999853849411011e-02 1.183426022529602051e+00 1.963858962059020996e+00 -1.456014990806579590e+00 -1.838809967041015625e+00 -9.952830076217651367e-01 1.215239986777305603e-01 1.010972023010253906e+00 2.954440116882324219e-01 1.303104043006896973e+00 -6.477710008621215820e-01 -4.894689917564392090e-01 -5.063679814338684082e-01 -2.257205963134765625e+00 -1.497789978981018066e+00 5.360670089721679688e-01 -7.819920182228088379e-01 -4.268899857997894287e-01 6.250500082969665527e-01 -9.044579863548278809e-01 -2.095109969377517700e-01 -1.057543992996215820e+00 -2.272409945726394653e-01 -1.248118042945861816e+00 1.670562982559204102e+00 -8.669099956750869751e-02 -1.033319979906082153e-01 -1.169299986213445663e-02 7.255929708480834961e-01 1.763790965080261230e+00 -1.707099974155426025e-01 2.001496076583862305e+00 1.621530055999755859e-01 -5.503029823303222656e-01 6.649619936943054199e-01 -1.820120066404342651e-01 -4.069550037384033203e-01 4.876359999179840088e-01 7.426589727401733398e-01 5.275329947471618652e-01 -4.356440007686614990e-01 4.760560095310211182e-01 -6.122999824583530426e-03 -6.128839850425720215e-01 -4.489800035953521729e-01 2.480256080627441406e+00 -8.331080079078674316e-01 -2.377465009689331055e+00 7.652109861373901367e-01 -8.911820054054260254e-01 8.933000266551971436e-02 1.317906022071838379e+00 -9.342250227928161621e-01 -1.102375030517578125e+00 -3.323700129985809326e-01 1.728679984807968140e-01 -3.931400179862976074e-02 4.098510146141052246e-01 3.114179968833923340e-01 -1.204285025596618652e+00 1.135352015495300293e+00 -9.841679930686950684e-01 -1.046670004725456238e-01 -2.148869931697845459e-01 1.233209967613220215e+00 5.195440053939819336e-01 1.676869988441467285e-01 7.462500035762786865e-02 -1.476457953453063965e+00 -2.117892026901245117e+00 1.306887984275817871e+00 -4.254849851131439209e-01 2.464009970426559448e-01 -4.945850074291229248e-01 -8.727130293846130371e-01 4.334689974784851074e-01 -2.372130006551742554e-01 -8.616949915885925293e-01 2.107899904251098633e+00 1.087000012397766113e+00 1.507547020912170410e+00 -3.023779988288879395e-01 4.115389883518218994e-01 1.737318038940429688e+00 -1.581128001213073730e+00 -2.909019887447357178e-01 5.256590247154235840e-01 1.544580012559890747e-01 2.320999978110194206e-03 1.682019978761672974e-01 -3.633400052785873413e-02 1.198600046336650848e-02 -9.840000420808792114e-04 -5.140730142593383789e-01 -2.212119996547698975e-01 8.295299857854843140e-02 9.685710072517395020e-01 1.343110054731369019e-01 3.422389924526214600e-01 -1.291929930448532104e-01 5.036230087280273438e-01 -1.852000057697296143e-01 -8.889459967613220215e-01 -4.686020016670227051e-01 6.284700334072113037e-02 -2.566820085048675537e-01 7.488200068473815918e-02 3.979910016059875488e-01 4.411259889602661133e-01 -5.617579817771911621e-01 1.966499984264373779e-01 8.755800127983093262e-02 -1.571828961372375488e+00 5.467199906706809998e-02 6.695060133934020996e-01 -2.033150047063827515e-01 -3.821589946746826172e-01 -9.976149797439575195e-01 9.369410276412963867e-01 5.041949748992919922e-01 5.507990121841430664e-01 -7.239069938659667969e-01 -5.842090249061584473e-01 -2.409520000219345093e-01 -2.569199912250041962e-02 -1.608529984951019287e-01 -1.717864990234375000e+00 3.082750141620635986e-01 1.083019971847534180e-01 -2.145889997482299805e-01 3.728179931640625000e-01 -2.592160105705261230e-01 5.180870294570922852e-01 -5.013930201530456543e-01 -3.930479884147644043e-01 4.192810058593750000e-01 3.402869999408721924e-01 3.362109959125518799e-01 -8.253899961709976196e-02 1.278990060091018677e-01 -3.531630039215087891e-01 8.539299666881561279e-02 -1.529680043458938599e-01 5.586199760437011719e-01 -2.795040011405944824e-01 3.683510124683380127e-01 -5.568879842758178711e-01 1.194970965385437012e+00 -1.651110053062438965e-01 7.420589923858642578e-01 1.803140044212341309e-01 2.258020043373107910e-01 4.358850121498107910e-01 -4.173049926757812500e-01 9.968899935483932495e-02 5.242589712142944336e-01 -1.900070011615753174e-01 1.016602993011474609e+00 6.303269863128662109e-01 -8.437470197677612305e-01 8.445499837398529053e-02 -1.611577987670898438e+00 2.300859987735748291e-01 2.126770019531250000e-01 -7.274899631738662720e-02 4.875199869275093079e-02 -6.089529991149902344e-01 -9.811700135469436646e-02 -4.679740071296691895e-01 -1.016356945037841797e+00 1.847849935293197632e-01 -2.065323114395141602e+00 -5.346840023994445801e-01 -5.157709717750549316e-01 1.940020024776458740e-01 7.777100056409835815e-02 -7.893700152635574341e-02 3.157179951667785645e-01 -6.450189948081970215e-01 -4.407939910888671875e-01 -6.835999898612499237e-03 -1.163880005478858948e-01 -1.370149999856948853e-01 3.751739859580993652e-01 -2.444210052490234375e-01 -7.189799845218658447e-02 -8.332830071449279785e-01 9.511479735374450684e-01 5.106130242347717285e-01 5.603799968957901001e-02 7.697299718856811523e-01 -1.341200023889541626e-01 -4.700100049376487732e-02 -1.318449974060058594e-01 2.634069919586181641e-01 6.461399793624877930e-02 1.254519969224929810e-01 3.693839907646179199e-01 -2.988210022449493408e-01 2.235420048236846924e-01 -3.432990014553070068e-01 -4.948379993438720703e-01 -7.564900070428848267e-02 1.077361941337585449e+00 -2.186570018529891968e-01 2.434840053319931030e-01 1.369879990816116333e-01 4.910989999771118164e-01 4.870200157165527344e-02 3.159449994564056396e-01 -1.642999984323978424e-02 -1.509524941444396973e+00 1.735049933195114136e-01 -1.355648994445800781e+00 -6.465539932250976562e-01 6.979939937591552734e-01 2.185889929533004761e-01 -2.875919938087463379e-01 -6.164879798889160156e-01 -1.021677017211914062e+00 3.457910120487213135e-01 -1.585052013397216797e+00 3.272430002689361572e-01 -2.626290023326873779e-01 -2.358790040016174316e-01 -3.774060010910034180e-01 -8.476169705390930176e-01 -4.947870075702667236e-01 5.763199925422668457e-02 8.735929727554321289e-01 -9.597100317478179932e-02 1.136320009827613831e-01 3.828540146350860596e-01 7.591890096664428711e-01 3.149249851703643799e-01 -3.917990028858184814e-01 2.380869984626770020e-01 -8.609910011291503906e-01 -7.796700298786163330e-02 3.835630118846893311e-01 -7.150399684906005859e-02 -3.668760061264038086e-01 4.546720087528228760e-01 -3.355239927768707275e-01 3.713500127196311951e-02 2.089059948921203613e-01 -4.747920036315917969e-01 -4.798449873924255371e-01 -2.303599938750267029e-02 1.026940941810607910e+00 1.011329963803291321e-01 9.755640029907226562e-01 4.183770120143890381e-01 -7.057679891586303711e-01 1.543740034103393555e-01 -5.810660123825073242e-01 -4.388099908828735352e-01 -3.747900128364562988e-01 -1.388469934463500977e-01 5.829650163650512695e-01 1.268196940422058105e+00 -1.216586947441101074e+00 -1.204457998275756836e+00 -7.157059907913208008e-01 -9.631490111351013184e-01 2.781299948692321777e-01 3.827219903469085693e-01 -2.514330148696899414e-01 5.817260146141052246e-01 4.065159857273101807e-01 -3.797619938850402832e-01 -1.311309933662414551e-01 -2.604430019855499268e-01 -5.515199899673461914e-01 1.910900026559829712e-01 -5.242900177836418152e-02 3.477999866008758545e-01 -7.805629968643188477e-01 -2.415589988231658936e-01 6.411799788475036621e-01 -1.164500042796134949e-02 6.893000006675720215e-01 -2.324286937713623047e+00 -1.283004999160766602e+00 1.182026028633117676e+00 1.892019957304000854e-01 2.712779939174652100e-01 -8.253999985754489899e-03 -7.497899979352951050e-02 -4.929589927196502686e-01 -1.264981985092163086e+00 8.517730236053466797e-01 -1.493739932775497437e-01 -2.671100012958049774e-02 -1.702560037374496460e-01 4.977389872074127197e-01 -2.241349965333938599e-01 -7.741280198097229004e-01 6.487979888916015625e-01 -8.216000348329544067e-02 -2.670759856700897217e-01 5.194010138511657715e-01 1.404139995574951172e-01 -1.486130058765411377e-01 -7.358369827270507812e-01 -9.627699851989746094e-02 -4.187830090522766113e-01 1.141085982322692871e+00 -4.248199984431266785e-02 2.388049960136413574e-01 -1.869557976722717285e+00 -1.624899953603744507e-01 3.192700073122978210e-02 8.959209918975830078e-01 2.043190002441406250e-01 1.843609958887100220e-01 4.994240105152130127e-01 4.408529996871948242e-01 -4.735139906406402588e-01 1.232850030064582825e-01 -2.305600047111511230e-02 1.887030005455017090e-01 2.213799953460693359e-02 -2.245599962770938873e-02 -3.567630052566528320e-01 7.071500271558761597e-02 1.027320027351379395e-01 9.115400165319442749e-02 -2.548319995403289795e-01 -3.174290060997009277e-01 -8.855460286140441895e-01 -5.409690141677856445e-01 -2.433550059795379639e-01 -3.293040096759796143e-01 -8.784520030021667480e-01 1.909870058298110962e-01 2.271690070629119873e-01 -2.243269979953765869e-01 -4.572980105876922607e-01 4.365809857845306396e-01 -2.192600071430206299e-02 6.861010193824768066e-01 -2.766129970550537109e-01 -1.294600069522857666e-01 -7.813439965248107910e-01 -8.412449955940246582e-01 -7.819579839706420898e-01 1.656036019325256348e+00 -5.462380051612854004e-01 -1.120930016040802002e-01 -3.578380048274993896e-01 7.008700072765350342e-02 4.923380017280578613e-01 1.598349958658218384e-01 7.454299926757812500e-02 -9.361990094184875488e-01 3.381609916687011719e-01 -6.601740121841430664e-01 1.732321023941040039e+00 -3.135420083999633789e-01 -4.392220079898834229e-01 -1.337664961814880371e+00 2.015872001647949219e+00 1.020694971084594727e+00 8.803179860115051270e-01 -8.197499811649322510e-02 -3.200269937515258789e-01 3.688400089740753174e-01 -9.426879882812500000e-01 1.957329988479614258e+00 -9.077159762382507324e-01 2.001609951257705688e-01 -1.450049042701721191e+00 -2.090000052703544497e-04 7.730129957199096680e-01 1.433490067720413208e-01 5.317999981343746185e-03 -4.429210126399993896e-01 2.811439931392669678e-01 -2.876700088381767273e-02 -1.949969977140426636e-01 -8.674000389873981476e-03 1.130390018224716187e-01 -2.058739960193634033e-01 -2.686460018157958984e-01 -1.379459947347640991e-01 3.460260033607482910e-01 -4.905399978160858154e-01 5.226999893784523010e-02 1.645119935274124146e-01 -1.155959963798522949e-01 -5.840000230818986893e-04 2.326229959726333618e-01 -2.450099959969520569e-02 -7.635020017623901367e-01 -3.461259901523590088e-01 5.668939948081970215e-01 6.636199951171875000e-01 -2.437780052423477173e-01 2.078080028295516968e-01 -1.299660056829452515e-01 -1.445119976997375488e-01 -2.115869969129562378e-01 -1.610540002584457397e-01 -4.614180028438568115e-01 3.366290032863616943e-01 -6.999959945678710938e-01 -8.145369887351989746e-01 -9.217299818992614746e-01 -1.186856985092163086e+00 -5.527449846267700195e-01 -3.481979966163635254e-01 1.290248990058898926e+00 -6.034599989652633667e-02 -1.641229987144470215e-01 1.700520068407058716e-01 -2.469030022621154785e-01 1.891900040209293365e-02 3.783699870109558105e-02 -3.319210112094879150e-01 3.450770080089569092e-01 5.571179986000061035e-01 -2.589977979660034180e+00 7.079160213470458984e-01 2.286009937524795532e-01 -1.183459982275962830e-01 6.285169720649719238e-01 -5.737519860267639160e-01 -4.255799949169158936e-01 -4.987100139260292053e-02 -4.211900010704994202e-02 -3.234969973564147949e-01 -1.054605960845947266e+00 -1.546219944953918457e+00 -6.687449812889099121e-01 9.548199921846389771e-02 -4.947899878025054932e-01 -7.206820249557495117e-01 -4.912590086460113525e-01 -4.308379888534545898e-01 2.305929958820343018e-01 4.669300094246864319e-02 -7.634850144386291504e-01 -7.822100073099136353e-02 5.789800286293029785e-01 -2.311690002679824829e-01 5.405579805374145508e-01 5.032999906688928604e-03 2.332790046930313110e-01 -4.650099873542785645e-01 2.395830005407333374e-01 8.411300182342529297e-02 -1.050850003957748413e-01 3.880249857902526855e-01 -1.557170987129211426e+00 -4.648799821734428406e-02 -1.210710033774375916e-01 -1.037980020046234131e-01 -2.355580031871795654e-01 9.660000214353203773e-04 -8.053519725799560547e-01 -5.442849993705749512e-01 5.494729876518249512e-01 4.427770078182220459e-01 -3.043900057673454285e-02 3.746440112590789795e-01 6.026200056076049805e-01 -7.731260061264038086e-01 -3.536550104618072510e-01 9.840799868106842041e-02 -3.261570036411285400e-01 5.463960170745849609e-01 -5.698609948158264160e-01 6.052579879760742188e-01 9.673699736595153809e-02 -4.411239922046661377e-01 1.681699976325035095e-02 2.625870108604431152e-01 -7.355880141258239746e-01 -1.005362033843994141e+00 -2.178100049495697021e-01 -4.086270034313201904e-01 -8.127400279045104980e-02 5.446779727935791016e-01 -9.910420179367065430e-01 -6.131950020790100098e-01 -5.543889999389648438e-01 -2.591669857501983643e-01 6.876549720764160156e-01 5.489199757575988770e-01 -3.489440083503723145e-01 -2.849360108375549316e-01 1.047260999679565430e+00 4.856249988079071045e-01 -1.826709955930709839e-01 6.708800047636032104e-02 -4.002819955348968506e-01 3.283399939537048340e-01 -1.159683942794799805e+00 7.223680019378662109e-01 -7.581520080566406250e-01 2.154187917709350586e+00 7.675409913063049316e-01 5.464800000190734863e-01 -1.639160066843032837e-01 3.954379856586456299e-01 -3.467170000076293945e-01 1.595070064067840576e-01 -3.520599901676177979e-01 2.734439969062805176e-01 -2.283452033996582031e+00 -3.682669997215270996e-01 6.843410134315490723e-01 4.338690042495727539e-01 4.872150123119354248e-01 3.389799892902374268e-01 5.816540122032165527e-01 -3.722209930419921875e-01 1.540236949920654297e+00 7.835959792137145996e-01 -4.357669949531555176e-01 1.997620016336441040e-01 1.624079942703247070e-01 -1.637410074472427368e-01 3.002399951219558716e-02 1.767719984054565430e-01 3.838819861412048340e-01 6.931229829788208008e-01 -2.295639961957931519e-01 2.021880000829696655e-01 -5.637660026550292969e-01 1.148604035377502441e+00 2.047190070152282715e-01 5.925750136375427246e-01 -7.622550129890441895e-01 -1.672469973564147949e-01 8.440099954605102539e-01 -7.722449898719787598e-01 -5.757160186767578125e-01 -2.450399994850158691e-01 2.266460061073303223e-01 -1.021549999713897705e-01 -1.461939960718154907e-01 7.542800158262252808e-02 2.579109966754913330e-01 5.680500268936157227e-01 4.497849941253662109e-01 1.199622988700866699e+00 1.713160037994384766e+00 -1.176856040954589844e+00 -3.591940104961395264e-01 6.776109933853149414e-01 6.371009945869445801e-01 -4.831269979476928711e-01 -4.746220111846923828e-01 -6.930699944496154785e-02 -3.125390112400054932e-01 -1.732430011034011841e-01 3.972400128841400146e-01 -3.307729959487915039e-01 -1.084285974502563477e+00 4.558629989624023438e-01 -6.687750220298767090e-01 -1.746188044548034668e+00 1.615787029266357422e+00 -1.337980031967163086e-01 -1.520629972219467163e-01 4.604560136795043945e-01 -1.527699977159500122e-01 -2.800740003585815430e-01 -3.322950005531311035e-01 -3.513180017471313477e-01 1.219447970390319824e+00 6.521120071411132812e-01 -4.221760034561157227e-01 4.639579951763153076e-01 8.582640290260314941e-01 6.611400097608566284e-02 -3.865169882774353027e-01 1.997569948434829712e-01 -5.029709935188293457e-01 -4.903100058436393738e-02 2.720350027084350586e-01 4.158250093460083008e-01 -1.436385989189147949e+00 -5.490300059318542480e-02 8.368989825248718262e-01 3.838180005550384521e-01 -3.606559932231903076e-01 -1.161899976432323456e-02 8.344179987907409668e-01 -8.611540198326110840e-01 -2.464559972286224365e-01 -1.078459993004798889e-01 -4.905659854412078857e-01 5.472699999809265137e-01 -1.423889994621276855e-01 1.715790033340454102e-01 -2.198999933898448944e-02 -1.172724008560180664e+00 -1.206624984741210938e+00 -1.185657978057861328e+00 -1.250270009040832520e-01 1.255429983139038086e-01 -1.356883049011230469e+00 3.425669968128204346e-01 -8.572180271148681641e-01 -3.040170073509216309e-01 -5.035870075225830078e-01 -4.454430043697357178e-01 -1.306499987840652466e-01 -8.100400120019912720e-02 -8.660700172185897827e-02 -7.794049978256225586e-01 3.103420138359069824e-01 2.076130062341690063e-01 -3.351759910583496094e-01 -2.101079970598220825e-01 5.701500177383422852e-01 4.087280035018920898e-01 4.053339958190917969e-01 5.631899833679199219e-02 4.422050118446350098e-01 -2.534810006618499756e-01 8.121799677610397339e-02 6.169570088386535645e-01 -7.838519811630249023e-01 -2.977719902992248535e-01 -6.876400113105773926e-02 2.492720037698745728e-01 7.021930217742919922e-01 -3.234300017356872559e-01 6.556300073862075806e-02 2.577199935913085938e-01 1.833589971065521240e-01 9.788050055503845215e-01 -1.293077945709228516e+00 -4.494319856166839600e-01 1.935379952192306519e-01 1.512659937143325806e-01 -6.701149940490722656e-01 7.396300137042999268e-02 4.083220064640045166e-01 -1.848600059747695923e-02 -1.064700037240982056e-01 -3.255659937858581543e-01 -5.479300022125244141e-01 -1.306620955467224121e+00 9.173359870910644531e-01 -4.330300167202949524e-02 7.739999797195196152e-03 -9.081999771296977997e-03 9.849199652671813965e-02 -3.557989895343780518e-01 1.209629997611045837e-01 -1.212681055068969727e+00 8.770080208778381348e-01 -1.048908948898315430e+00 -1.307018995285034180e+00 -6.976060271263122559e-01 4.067900031805038452e-02 6.866769790649414062e-01 -2.034820020198822021e-01 2.065880000591278076e-01 -9.574700146913528442e-02 -4.332439899444580078e-01 1.936739981174468994e-01 4.863150119781494141e-01 4.357540011405944824e-01 -3.114379942417144775e-01 2.538700029253959656e-02 -5.166700109839439392e-02 7.845839858055114746e-01 4.529600143432617188e-01 -6.675789952278137207e-01 8.673830032348632812e-01 6.512069702148437500e-01 3.871710002422332764e-01 -3.666499853134155273e-01 -3.125460147857666016e-01 -2.858639955520629883e-01 -1.654845952987670898e+00 3.425570130348205566e-01 -4.072189927101135254e-01 -1.045410990715026855e+00 -1.270933032035827637e+00 -1.095113039016723633e+00 5.250520110130310059e-01 -5.618630051612854004e-01 1.687970012426376343e-01 -7.737519741058349609e-01 6.083520054817199707e-01 -4.167340099811553955e-01 -1.103440001606941223e-01 -4.032759964466094971e-01 -3.311099857091903687e-02 1.611799933016300201e-02 -1.145749986171722412e-01 3.815999953076243401e-03 -2.610689997673034668e-01 1.069434046745300293e+00 1.048959016799926758e+00 -6.444190144538879395e-01 -1.433346986770629883e+00 6.547899842262268066e-01 -1.178542971611022949e+00 1.430899024009704590e+00 1.142150014638900757e-01 3.248179852962493896e-01 1.780666947364807129e+00 7.595919966697692871e-01 -1.728579998016357422e-01 4.701719880104064941e-01 3.410660028457641602e-01 -8.972970247268676758e-01 8.874019980430603027e-01 -7.095339894294738770e-01 1.795759946107864380e-01 -1.002120003104209900e-01 1.053400993347167969e+00 -4.467960000038146973e-01 -1.600929945707321167e-01 -1.494449973106384277e-01 1.283099967986345291e-02 2.511329948902130127e-01 4.095610082149505615e-01 -5.294099822640419006e-02 1.052599996328353882e-01 9.148849844932556152e-01 9.372190237045288086e-01 -2.559190094470977783e-01 1.881469935178756714e-01 -1.597870945930480957e+00 3.074980080127716064e-01 -2.705500125885009766e-01 1.848489940166473389e-01 -5.945150256156921387e-01 -1.369704008102416992e+00 -5.671000108122825623e-03 -9.288439750671386719e-01 -1.189199984073638916e-01 5.422369837760925293e-01 -9.481610059738159180e-01 6.684400141239166260e-02 5.742229819297790527e-01 -2.286427974700927734e+00 -1.291113018989562988e+00 -1.383213996887207031e+00 -9.441699832677841187e-02 -3.588410019874572754e-01 1.512680053710937500e-01 -8.003299832344055176e-01 -4.037399962544441223e-02 -2.351080030202865601e-01 2.639330029487609863e-01 2.474500052630901337e-02 1.211159974336624146e-01 5.353080034255981445e-01 -2.048770040273666382e-01 -3.270959854125976562e-01 -7.968100160360336304e-02 2.781080007553100586e-01 3.797020018100738525e-01 1.033458948135375977e+00 5.497310161590576172e-01 -1.010051965713500977e+00 -1.085119992494583130e-01 7.953099906444549561e-02 -2.325239926576614380e-01 2.766259908676147461e-01 5.058500170707702637e-02 -4.256809949874877930e-01 -4.432579874992370605e-01 -9.809800237417221069e-02 3.674300014972686768e-02 4.971199929714202881e-01 3.492630124092102051e-01 -1.738319993019104004e-01 5.254309773445129395e-01 1.795423030853271484e+00 -4.499999880790710449e-01 8.753769993782043457e-01 2.122129946947097778e-01 -8.540989756584167480e-01 5.536929965019226074e-01 1.715563058853149414e+00 -4.492979943752288818e-01 -3.592810034751892090e-01 3.884859979152679443e-01 1.964569985866546631e-01 -3.809700161218643188e-02 1.196863055229187012e+00 -5.100809931755065918e-01 1.006407976150512695e+00 1.316809952259063721e-01 4.645799845457077026e-02 6.904670000076293945e-01 -5.541610121726989746e-01 7.955870032310485840e-01 -9.230999648571014404e-02 -1.398369967937469482e-01 -6.806820034980773926e-01 4.939079880714416504e-01 -4.299620091915130615e-01 -8.625249862670898438e-01 -2.960470020771026611e-01 -2.953920066356658936e-01 4.811660051345825195e-01 8.203300088644027710e-02 -4.375460147857666016e-01 -2.448610067367553711e-01 3.054800033569335938e-01 1.845713973045349121e+00 1.373991966247558594e+00 -1.015115022659301758e+00 3.104400038719177246e-01 -4.912480115890502930e-01 -2.262410074472427368e-01 7.410910129547119141e-01 5.534980297088623047e-01 -1.069977998733520508e+00 6.976100057363510132e-02 -1.130009964108467102e-01 3.669230043888092041e-01 1.861120015382766724e-01 6.533470153808593750e-01 -5.979200005531311035e-01 -2.988200075924396515e-02 -1.496929973363876343e-01 9.900700300931930542e-02 -6.826099753379821777e-02 -7.962399721145629883e-01 -1.029602050781250000e+00 9.035720229148864746e-01 -8.118020296096801758e-01 -5.994089841842651367e-01 2.087920010089874268e-01 -1.026500016450881958e-01 4.216890037059783936e-01 -1.184862971305847168e+00 1.279618978500366211e+00 6.101030111312866211e-01 8.180580139160156250e-01 -2.625479996204376221e-01 7.295899838209152222e-02 8.192200213670730591e-02 2.673059999942779541e-01 -6.045219898223876953e-01 -1.665647983551025391e+00 4.041999876499176025e-01 -1.051409006118774414e+00 -6.647689938545227051e-01 -4.704499989748001099e-02 -3.227840065956115723e-01 -1.426510065793991089e-01 -1.203749999403953552e-01