4.899118041992187500e+01 1.128200149536132812e+01 3.213164091110229492e+00 1.128200149536132812e+01 4.425945663452148438e+01 -9.788322448730468750e+00 3.213164091110229492e+00 -9.788322448730468750e+00 4.212612533569335938e+01
8.672561645507812500e+01 1.655493527650833130e-01 -8.582340240478515625e+00 1.655493527650833130e-01 6.667380523681640625e+01 5.710481643676757812e+00 -8.582340240478515625e+00 5.710481643676757812e+00 7.056215667724609375e+01
7.172422027587890625e+01 6.009337425231933594e+00 3.021102190017700195e+00 6.009337425231933594e+00 6.584996032714843750e+01 -1.078115081787109375e+01 3.021102190017700195e+00 -1.078115081787109375e+01 6.975519561767578125e+01
6.186874389648437500e+01 -3.908228635787963867e+00 3.997072935104370117e+00 -3.908228635787963867e+00 5.572122955322265625e+01 4.973909854888916016e-01 3.997072935104370117e+00 4.973909854888916016e-01 8.074805450439453125e+01
8.116226959228515625e+01 5.867957115173339844e+00 -1.487288594245910645e+00 5.867957115173339844e+00 7.258834075927734375e+01 1.522302031517028809e+00 -1.487288594245910645e+00 1.522302031517028809e+00 7.454093933105468750e+01
7.554379272460937500e+01 3.139770030975341797e+00 -1.364531135559082031e+01 3.139770030975341797e+00 8.545000457763671875e+01 1.307082653045654297e+00 -1.364531135559082031e+01 1.307082653045654297e+00 5.319076538085937500e+01
7.980947113037109375e+01 -6.791863441467285156e+00 -3.460311174392700195e+00 -6.791863441467285156e+00 6.985357666015625000e+01 7.451145648956298828e-01 -3.460311174392700195e+00 7.451145648956298828e-01 6.360994338989257812e+01
7.969625091552734375e+01 -1.794036149978637695e+00 8.741040229797363281e+00 -1.794036149978637695e+00 6.001384735107421875e+01 -5.059249877929687500e+00 8.741040229797363281e+00 -5.059249877929687500e+00 7.963056945800781250e+01
6.987345886230468750e+01 1.144335842132568359e+01 -7.889381408691406250e+00 1.144335842132568359e+01 8.460239410400390625e+01 -3.547512292861938477e+00 -7.889381408691406250e+00 -3.547512292861938477e+00 8.034017181396484375e+01
8.323225402832031250e+01 -8.051548004150390625e+00 1.412714290618896484e+01 -8.051548004150390625e+00 9.250553131103515625e+01 2.230937480926513672e+00 1.412714290618896484e+01 2.230937480926513672e+00 7.935427093505859375e+01
6.281485366821289062e+01 -1.790892243385314941e+00 4.865160942077636719e+00 -1.790892243385314941e+00 8.426815032958984375e+01 -3.271934747695922852e+00 4.865160942077636719e+00 -3.271934747695922852e+00 5.852165603637695312e+01
7.735105133056640625e+01 7.644078731536865234e+00 7.642996311187744141e-01 7.644078731536865234e+00 9.389508819580078125e+01 -4.559849262237548828e+00 7.642996311187744141e-01 -4.559849262237548828e+00 8.580403137207031250e+01
7.530311584472656250e+01 1.276079535484313965e+00 -7.567611694335937500e+00 1.276079535484313965e+00 6.470990753173828125e+01 7.573207855224609375e+00 -7.567611694335937500e+00 7.573207855224609375e+00 9.693893432617187500e+01
8.376912689208984375e+01 -1.784703016281127930e+00 -2.415574312210083008e+00 -1.784703016281127930e+00 5.769291305541992188e+01 7.546679973602294922e+00 -2.415574312210083008e+00 7.546679973602294922e+00 6.380849075317382812e+01
8.329592895507812500e+01 3.340710639953613281e+00 4.526814460754394531e+00 3.340710639953613281e+00 8.222187805175781250e+01 5.587322711944580078e+00 4.526814460754394531e+00 5.587322711944580078e+00 8.232262420654296875e+01
7.870293426513671875e+01 7.980960011482238770e-01 1.181972980499267578e+01 7.980960011482238770e-01 7.349260711669921875e+01 -2.365689277648925781e+00 1.181972980499267578e+01 -2.365689277648925781e+00 7.029242706298828125e+01
8.172624969482421875e+01 7.715210914611816406e+00 4.323430061340332031e+00 7.715210914611816406e+00 7.605410003662109375e+01 1.458283805847167969e+01 4.323430061340332031e+00 1.458283805847167969e+01 8.278015136718750000e+01
5.112275314331054688e+01 3.249177694320678711e+00 6.095974922180175781e+00 3.249177694320678711e+00 7.236650085449218750e+01 7.348488807678222656e+00 6.095974922180175781e+00 7.348488807678222656e+00 5.708235931396484375e+01
9.050102233886718750e+01 6.450290083885192871e-01 2.923146724700927734e+00 6.450290083885192871e-01 8.608664703369140625e+01 1.901873111724853516e+00 2.923146724700927734e+00 1.901873111724853516e+00 9.047077941894531250e+01
8.367990112304687500e+01 -3.170590877532958984e+00 3.863290071487426758e+00 -3.170590877532958984e+00 8.713475799560546875e+01 -1.619459152221679688e+00 3.863290071487426758e+00 -1.619459152221679688e+00 8.313840484619140625e+01
5.840294265747070312e+01 -7.397772789001464844e+00 -2.705276727676391602e+00 -7.397772789001464844e+00 6.656507110595703125e+01 -9.594944953918457031e+00 -2.705276727676391602e+00 -9.594944953918457031e+00 6.338832473754882812e+01
6.591925048828125000e+01 8.683958649635314941e-01 -1.103397941589355469e+01 8.683958649635314941e-01 5.325404357910156250e+01 5.911779880523681641e+00 -1.103397941589355469e+01 5.911779880523681641e+00 4.007232666015625000e+01
7.381954956054687500e+01 2.369440078735351562e+00 -4.711519241333007812e+00 2.369440078735351562e+00 7.612319946289062500e+01 1.539677023887634277e+00 -4.711519241333007812e+00 1.539677023887634277e+00 7.759468841552734375e+01
6.706994628906250000e+01 -1.658730387687683105e+00 -1.314005279541015625e+01 -1.658730387687683105e+00 6.422737884521484375e+01 7.267045497894287109e+00 -1.314005279541015625e+01 7.267045497894287109e+00 5.874565124511718750e+01
9.142314910888671875e+01 -3.593935489654541016e+00 2.388404369354248047e+00 -3.593935489654541016e+00 7.776482391357421875e+01 4.876275062561035156e+00 2.388404369354248047e+00 4.876275062561035156e+00 7.677809906005859375e+01
8.394113922119140625e+01 -4.308767318725585938e+00 1.751137733459472656e+00 -4.308767318725585938e+00 9.200503540039062500e+01 6.979089260101318359e+00 1.751137733459472656e+00 6.979089260101318359e+00 9.102319335937500000e+01
7.494541168212890625e+01 4.574218273162841797e+00 4.570560932159423828e+00 4.574218273162841797e+00 8.049562072753906250e+01 3.074354648590087891e+00 4.570560932159423828e+00 3.074354648590087891e+00 9.553717041015625000e+01
4.132547760009765625e+01 2.274744510650634766e+00 -9.739705085754394531e+00 2.274744510650634766e+00 4.888204574584960938e+01 8.140617012977600098e-01 -9.739705085754394531e+00 8.140617012977600098e-01 5.716284179687500000e+01
6.497454071044921875e+01 -3.340399980545043945e+00 2.277883529663085938e+00 -3.340399980545043945e+00 6.807258605957031250e+01 3.542261838912963867e+00 2.277883529663085938e+00 3.542261838912963867e+00 7.867336273193359375e+01
6.399396896362304688e+01 -4.497966289520263672e+00 1.215473294258117676e+00 -4.497966289520263672e+00 6.411357879638671875e+01 9.678224563598632812e+00 1.215473294258117676e+00 9.678224563598632812e+00 6.008060455322265625e+01
6.164241409301757812e+01 -7.756415367126464844e+00 3.908625364303588867e+00 -7.756415367126464844e+00 8.222214508056640625e+01 -1.281688404083251953e+01 3.908625364303588867e+00 -1.281688404083251953e+01 8.263590240478515625e+01
5.993685531616210938e+01 7.418207645416259766e+00 -3.736869573593139648e+00 7.418207645416259766e+00 6.306224441528320312e+01 2.403167486190795898e+00 -3.736869573593139648e+00 2.403167486190795898e+00 5.631770324707031250e+01
6.680582427978515625e+01 -7.540136337280273438e+00 3.806987524032592773e+00 -7.540136337280273438e+00 6.568368530273437500e+01 -1.223311185836791992e+00 3.806987524032592773e+00 -1.223311185836791992e+00 7.868608093261718750e+01
6.278216552734375000e+01 9.155830144882202148e-01 9.025726318359375000e+00 9.155830144882202148e-01 3.962937545776367188e+01 4.730260372161865234e+00 9.025726318359375000e+00 4.730260372161865234e+00 7.708022308349609375e+01
7.838848114013671875e+01 -1.497541332244873047e+01 1.770842671394348145e-01 -1.497541332244873047e+01 7.361968994140625000e+01 -3.228790521621704102e+00 1.770842671394348145e-01 -3.228790521621704102e+00 7.259436798095703125e+01
7.632560729980468750e+01 3.340111970901489258e+00 5.598179340362548828e+00 3.340111970901489258e+00 8.488514709472656250e+01 1.645971298217773438e+00 5.598179340362548828e+00 1.645971298217773438e+00 7.387203979492187500e+01
5.846207046508789062e+01 -1.913462042808532715e+00 4.985695838928222656e+00 -1.913462042808532715e+00 6.420411682128906250e+01 2.881430387496948242e+00 4.985695838928222656e+00 2.881430387496948242e+00 3.812646484375000000e+01
8.115267944335937500e+01 -6.349358558654785156e+00 3.053096055984497070e+00 -6.349358558654785156e+00 7.686502838134765625e+01 8.667545318603515625e+00 3.053096055984497070e+00 8.667545318603515625e+00 8.389031219482421875e+01
6.791267395019531250e+01 6.972512602806091309e-01 -6.416388034820556641e+00 6.972512602806091309e-01 6.138800430297851562e+01 -1.020745182037353516e+01 -6.416388034820556641e+00 -1.020745182037353516e+01 4.410198211669921875e+01
8.350635528564453125e+01 5.506345748901367188e+00 6.785600662231445312e+00 5.506345748901367188e+00 8.767671203613281250e+01 -4.332491874694824219e+00 6.785600662231445312e+00 -4.332491874694824219e+00 7.560567474365234375e+01
5.852413558959960938e+01 -1.270997619628906250e+01 -3.387552499771118164e+00 -1.270997619628906250e+01 4.861210632324218750e+01 4.862434387207031250e+00 -3.387552499771118164e+00 4.862434387207031250e+00 5.510651016235351562e+01
5.892337036132812500e+01 4.507869243621826172e+00 -8.156035423278808594e+00 4.507869243621826172e+00 8.028836822509765625e+01 8.945301055908203125e+00 -8.156035423278808594e+00 8.945301055908203125e+00 7.078504943847656250e+01
7.737810516357421875e+01 9.441040039062500000e+00 8.571590423583984375e+00 9.441040039062500000e+00 7.232292938232421875e+01 -4.217317581176757812e+00 8.571590423583984375e+00 -4.217317581176757812e+00 7.483737945556640625e+01
7.783778381347656250e+01 1.684373140335083008e+00 1.140910863876342773e+00 1.684373140335083008e+00 7.109975433349609375e+01 -4.142713546752929688e+00 1.140910863876342773e+00 -4.142713546752929688e+00 6.425856781005859375e+01
7.311689758300781250e+01 2.266283035278320312e+00 8.659787178039550781e+00 2.266283035278320312e+00 6.407909393310546875e+01 1.342427635192871094e+01 8.659787178039550781e+00 1.342427635192871094e+01 6.260225296020507812e+01
7.035550689697265625e+01 4.760541915893554688e+00 -1.010743901133537292e-01 4.760541915893554688e+00 5.272170639038085938e+01 -8.446120262145996094e+00 -1.010743901133537292e-01 -8.446120262145996094e+00 6.820285034179687500e+01
4.445335388183593750e+01 -2.220563888549804688e+00 -2.702109575271606445e+00 -2.220563888549804688e+00 6.534597015380859375e+01 -7.615155577659606934e-01 -2.702109575271606445e+00 -7.615155577659606934e-01 5.676401519775390625e+01
6.834163665771484375e+01 -9.895149230957031250e+00 3.691225528717041016e+00 -9.895149230957031250e+00 7.156755065917968750e+01 -9.562467575073242188e+00 3.691225528717041016e+00 -9.562467575073242188e+00 7.355798339843750000e+01
