-2.142198278899991148e+00 -1.273773423760376833e+00 3.104526638826796484e-02 -1.273773423760376833e+00 -3.740786079039911893e+00 4.027645838429698422e-02 3.104526638826796484e-02 4.027645838429698422e-02 -2.788063401656641460e+00
