-1.872430419921875000e+03
-1.877393920898437500e+03
-1.873187500000000000e+03
-1.876473510742187500e+03
-1.875224487304687500e+03
-1.878365112304687500e+03
-1.877365234375000000e+03
-1.878370239257812500e+03
-1.882293457031250000e+03
-1.879137329101562500e+03
-1.872880737304687500e+03
-1.877025756835937500e+03
-1.872927734375000000e+03
-1.873914550781250000e+03
-1.872897338867187500e+03
-1.874583374023437500e+03
-1.872269897460937500e+03
-1.875022949218750000e+03
-1.873530029296875000e+03
-1.871371215820312500e+03
-1.888260742187500000e+03
-1.878342285156250000e+03
-1.872199829101562500e+03
-1.871294677734375000e+03
-1.872417236328125000e+03
-1.877127563476562500e+03
-1.879732788085937500e+03
-1.874069824218750000e+03
-1.876786743164062500e+03
-1.878710205078125000e+03
-1.872902343750000000e+03
-1.874643554687500000e+03
-1.873554443359375000e+03
-1.876850952148437500e+03
-1.874028930664062500e+03
-1.879027587890625000e+03
-1.872486083984375000e+03
-1.873206909179687500e+03
-1.876746337890625000e+03
-1.872741333007812500e+03
-1.870382202148437500e+03
-1.872545410156250000e+03
-1.871170166015625000e+03
-1.871255737304687500e+03
-1.876744873046875000e+03
-1.872332519531250000e+03
-1.871590942382812500e+03
-1.874300659179687500e+03
-1.873549316406250000e+03
-1.873267944335937500e+03
-1.872769775390625000e+03
-1.872052124023437500e+03
-1.871527099609375000e+03
-1.873525512695312500e+03
-1.876696655273437500e+03
-1.872180908203125000e+03
-1.873457519531250000e+03
-1.875042114257812500e+03
-1.879109741210937500e+03
-1.875303710937500000e+03
-1.878288330078125000e+03
-1.875665649414062500e+03
-1.877789428710937500e+03
-1.871741577148437500e+03
-1.871789916992187500e+03
-1.877216186523437500e+03
-1.870603881835937500e+03
-1.872631103515625000e+03
-1.873896362304687500e+03
-1.874071044921875000e+03
-1.874309570312500000e+03
-1.873075927734375000e+03
-1.873622436523437500e+03
-1.873110107421875000e+03
-1.874580932617187500e+03
-1.873151489257812500e+03
-1.874513793945312500e+03
-1.872688232421875000e+03
-1.879352661132812500e+03
-1.874691284179687500e+03
-1.875747192382812500e+03
-1.881749511718750000e+03
-1.873783447265625000e+03
-1.873835327148437500e+03
-1.874276367187500000e+03
-1.877373901367187500e+03
-1.871860351562500000e+03
-1.874592407226562500e+03
-1.874892700195312500e+03
-1.872190429687500000e+03
-1.872348999023437500e+03
-1.872152221679687500e+03
-1.873084472656250000e+03
-1.872972778320312500e+03
-1.872483642578125000e+03
-1.876149047851562500e+03
-1.878518188476562500e+03
-1.881842407226562500e+03
-1.876016845703125000e+03
-1.874010131835937500e+03
