1.556994247436523438e+01 0.000000000000000000e+00 0.000000000000000000e+00 0.000000000000000000e+00 1.556994247436523438e+01 0.000000000000000000e+00 0.000000000000000000e+00 0.000000000000000000e+00 1.556994247436523438e+01
1.556994247436523438e+01 0.000000000000000000e+00 0.000000000000000000e+00 0.000000000000000000e+00 1.556994247436523438e+01 0.000000000000000000e+00 0.000000000000000000e+00 0.000000000000000000e+00 1.556994247436523438e+01
1.564674091339111328e+01 0.000000000000000000e+00 0.000000000000000000e+00 0.000000000000000000e+00 1.564674091339111328e+01 0.000000000000000000e+00 0.000000000000000000e+00 0.000000000000000000e+00 1.564674091339111328e+01
1.560634517669677734e+01 0.000000000000000000e+00 0.000000000000000000e+00 0.000000000000000000e+00 1.560634517669677734e+01 0.000000000000000000e+00 0.000000000000000000e+00 0.000000000000000000e+00 1.560634517669677734e+01
1.552828311920166016e+01 0.000000000000000000e+00 0.000000000000000000e+00 0.000000000000000000e+00 1.552828311920166016e+01 0.000000000000000000e+00 0.000000000000000000e+00 0.000000000000000000e+00 1.552828311920166016e+01
