-4.613925781250000000e+02
-4.623078308105468750e+02
-4.603150634765625000e+02
-4.616258544921875000e+02
-4.592080993652343750e+02
