-2.152915000915527344e+00 7.169199734926223755e-02 3.525539934635162354e-01 -4.973579943180084229e-01 3.261989951133728027e-01 4.335080087184906006e-01 3.691970109939575195e-01 -9.991639852523803711e-01 2.141759991645812988e-01 6.350920200347900391e-01 6.235439777374267578e-01 6.399090290069580078e-01 5.395029783248901367e-01 -9.603629708290100098e-01 6.845600008964538574e-01 2.172659933567047119e-01 -5.174070000648498535e-01 8.145359754562377930e-01 6.895130276679992676e-01 -2.534709870815277100e-01 1.017554998397827148e+00 1.938899978995323181e-02 4.292989969253540039e-01 -2.848800085484981537e-02 4.348370134830474854e-01 1.631868958473205566e+00 1.145931959152221680e+00 -2.907139956951141357e-01 1.816029995679855347e-01 -5.732839703559875488e-01 -2.540699951350688934e-02 -2.014899998903274536e-02 -8.042550086975097656e-01 -1.352231979370117188e+00 7.472069859504699707e-01 -3.163479864597320557e-01 5.280619859695434570e-01 -3.383130133152008057e-01 -4.752349853515625000e-01 1.658547043800354004e+00 2.125229984521865845e-01 -4.970740079879760742e-01 6.660130023956298828e-01 -1.809921026229858398e+00 -8.020889759063720703e-01 -3.066810071468353271e-01 -6.426029801368713379e-01 -1.504184961318969727e+00 1.599860042333602905e-01 -7.971400022506713867e-02 -2.423759996891021729e-01 -1.018430948257446289e+00 3.203599900007247925e-02 -2.823410034179687500e-01 -5.648859739303588867e-01 1.304669976234436035e-01 5.802260041236877441e-01 -8.110669851303100586e-01 -1.644088029861450195e+00 4.234069883823394775e-01 6.744149923324584961e-01 8.045309782028198242e-01 3.681479990482330322e-01 1.720999949611723423e-03 1.149019971489906311e-01 8.134899735450744629e-01 1.775059998035430908e-01 -6.048660278320312500e-01 1.490715980529785156e+00 -3.356400132179260254e-01 3.120990097522735596e-01 9.061239957809448242e-01 -7.831370234489440918e-01 1.359156966209411621e+00 -3.981939852237701416e-01 -1.489132046699523926e+00 -1.501590013504028320e-01 -6.198310256004333496e-01 -2.311999909579753876e-02 5.494830012321472168e-01 -4.029270112514495850e-01 -5.611190199851989746e-01 1.449510008096694946e-01 -3.556999862194061279e-01 1.595190018415451050e-01 3.048020005226135254e-01 5.465019941329956055e-01 1.103165984153747559e+00 9.839820265769958496e-01 1.030275940895080566e+00 -8.121140003204345703e-01 2.527419924736022949e-01 3.443900048732757568e-01 3.154610097408294678e-01 2.858070135116577148e-01 -1.490229964256286621e-01 1.428928971290588379e+00 -6.943060159683227539e-01 4.998849928379058838e-01 6.962580084800720215e-01 6.760339736938476562e-01 -8.524140119552612305e-01 3.052749931812286377e-01 -3.605540096759796143e-01 -2.751829922199249268e-01 2.479709982872009277e-01 6.469400227069854736e-02 -2.403659969568252563e-01 -1.637540012598037720e-01 5.351899936795234680e-02 -1.042539998888969421e-01 -2.265760004520416260e-01 9.321990013122558594e-01 -1.130319982767105103e-01 1.753499954938888550e-01 -3.717400133609771729e-01 4.710739850997924805e-01 -5.017520189285278320e-01 -4.877659976482391357e-01 -1.108065009117126465e+00 7.487300038337707520e-02 8.674259781837463379e-01 -1.817879974842071533e-01 -5.265989899635314941e-01 1.090309992432594299e-01 -4.475130140781402588e-01 -1.086679995059967041e-01 5.920820236206054688e-01 -1.389683961868286133e+00 -1.008099988102912903e-01 -6.281100213527679443e-02 5.468530058860778809e-01 -5.929899960756301880e-02 -8.160499930381774902e-01 -6.236140131950378418e-01 -4.957599937915802002e-01 2.329439967870712280e-01 -7.909700274467468262e-02 2.419050037860870361e-01 7.951900362968444824e-02 4.862000048160552979e-02 -1.185059994459152222e-01 -5.481889843940734863e-01 8.019999950192868710e-04 -3.727779984474182129e-01 -9.384600073099136353e-02 -8.899639844894409180e-01 -1.914650052785873413e-01 -1.600808024406433105e+00 -3.882310092449188232e-01 4.910080134868621826e-01 -1.868039965629577637e-01 7.088040113449096680e-01 -1.917079985141754150e-01 -8.639999665319919586e-03 -1.536999940872192383e-01 -2.385009974241256714e-01 1.662399992346763611e-02 5.030450224876403809e-01 3.492650091648101807e-01 -4.385099932551383972e-02 4.536649882793426514e-01 5.480149984359741211e-01 -1.033136963844299316e+00 7.980629801750183105e-01 8.432599902153015137e-01 3.997380137443542480e-01 -3.854109942913055420e-01 -1.584563016891479492e+00 1.213380023837089539e-01 6.867330074310302734e-01 1.078143954277038574e+00 2.090110033750534058e-01 -6.289000157266855240e-03 -1.956347942352294922e+00 9.781599789857864380e-02 1.446640044450759888e-01 3.594650030136108398e-01 -3.628019988536834717e-01 2.815729975700378418e-01 -1.519969999790191650e-01 1.778684973716735840e+00 6.128150224685668945e-01 -1.193839982151985168e-01 2.685100138187408447e-01 1.833550035953521729e-01 6.979399919509887695e-02 4.692150056362152100e-01 1.695711970329284668e+00 -8.958099782466888428e-02 -1.599240005016326904e-01 -1.000630035996437073e-01 -1.141889989376068115e-01 1.235399954020977020e-02 -4.337700083851814270e-02 9.820999950170516968e-02 3.075199946761131287e-02 1.971919983625411987e-01 -2.693899907171726227e-02 -5.887230038642883301e-01 1.318699959665536880e-02 1.041476964950561523e+00 8.870200067758560181e-02 1.919369995594024658e-01 1.030594944953918457e+00 -1.940740048885345459e-01 -2.411220073699951172e-01 -5.986490249633789062e-01 -2.086599916219711304e-02 -5.951539874076843262e-01 9.224529862403869629e-01 5.806300044059753418e-01 -6.800399720668792725e-02 -2.429309934377670288e-01 1.114992976188659668e+00 -4.271090030670166016e-01 4.998370110988616943e-01 5.943220257759094238e-01 6.372969746589660645e-01 -1.288820981979370117e+00 -2.906810045242309570e-01 -1.055472970008850098e+00 -3.279480040073394775e-01 -4.982149899005889893e-01 -1.429820060729980469e-01 -3.071399964392185211e-02 1.780599951744079590e-01 -7.868710160255432129e-01 -5.051760077476501465e-01 1.549643993377685547e+00 -1.076117038726806641e+00 2.861390113830566406e-01 -9.411330223083496094e-01 -3.675799965858459473e-01 5.448300018906593323e-02 -1.599320024251937866e-01 -2.702510058879852295e-01 2.098840028047561646e-01 -2.413990050554275513e-01 -6.677700281143188477e-01 3.044719994068145752e-01 -1.834979951381683350e-01 1.183900013566017151e-01 5.014110207557678223e-01 -1.160454988479614258e+00 2.824720144271850586e-01 1.300819993019104004e+00 1.562660038471221924e-01 3.758380115032196045e-01 5.636990070343017578e-01 1.548449993133544922e-01 1.907449960708618164e-01 -1.024520024657249451e-01 -2.515000104904174805e-01 4.731900095939636230e-01 1.470610052347183228e-01 1.325799971818923950e-01 -2.615099959075450897e-02 3.137379884719848633e-01 1.279699988663196564e-02 1.378969997167587280e-01 -1.352680027484893799e-01 1.634799987077713013e-01 2.978309988975524902e-01 9.679999947547912598e-02 -3.238140046596527100e-01 -6.215239763259887695e-01 -2.957710027694702148e-01 1.318600028753280640e-02 2.882199920713901520e-02 -1.457719951868057251e-01 -6.431040167808532715e-01 -1.823569983243942261e-01 -9.484230279922485352e-01 -2.799189984798431396e-01 -8.588160276412963867e-01 -3.527500033378601074e-01 -5.884680151939392090e-01 -8.409000188112258911e-02 1.069417953491210938e+00 3.900940120220184326e-01 -2.552889883518218994e-01 9.017109870910644531e-01 -2.895410060882568359e-01 -7.667899876832962036e-02 -1.263105988502502441e+00 -1.332200020551681519e-01 2.502610087394714355e-01
1.203647017478942871e+00 3.202889859676361084e-01 -2.415910065174102783e-01 -1.464560031890869141e-01 7.586550116539001465e-01 -1.641460061073303223e-01 1.146291017532348633e+00 -5.224899947643280029e-02 -2.353090047836303711e-01 -4.768700152635574341e-02 5.616819858551025391e-01 9.187319874763488770e-01 -3.516309857368469238e-01 -5.862759947776794434e-01 -2.525399923324584961e-01 -1.513430029153823853e-01 -1.169779971241950989e-01 1.502950042486190796e-01 -8.505250215530395508e-01 4.486309885978698730e-01 1.114161014556884766e+00 2.431199997663497925e-01 -8.133860230445861816e-01 7.840719819068908691e-01 -1.256940007209777832e+00 -8.699190020561218262e-01 9.463949799537658691e-01 -9.706199914216995239e-02 5.267490148544311523e-01 1.042948007583618164e+00 1.048836946487426758e+00 4.016990065574645996e-01 -2.340729981660842896e-01 9.773000329732894897e-02 2.576499879360198975e-01 1.253630071878433228e-01 -7.950509786605834961e-01 7.965610027313232422e-01 -4.895659983158111572e-01 2.849899977445602417e-02 -9.846019744873046875e-01 1.483445048332214355e+00 -7.712190151214599609e-01 5.688859820365905762e-01 -1.865815043449401855e+00 2.725600078701972961e-02 4.726299941539764404e-01 4.151029884815216064e-01 -4.472180008888244629e-01 3.682189881801605225e-01 -7.816470265388488770e-01 -3.287639915943145752e-01 -1.567119956016540527e-01 -6.723420023918151855e-01 1.879613041877746582e+00 -9.077600240707397461e-01 -1.863057971000671387e+00 -4.822080135345458984e-01 -2.146310061216354370e-01 1.729200035333633423e-01 -4.936349987983703613e-01 -8.105480074882507324e-01 2.971599996089935303e-01 -5.174270272254943848e-01 2.086320072412490845e-01 1.377959996461868286e-01 -6.495230197906494141e-01 -7.744989991188049316e-01 1.621999979019165039e+00 -5.474169850349426270e-01 -5.251089930534362793e-01 -1.389001965522766113e+00 1.983200013637542725e-02 -4.128530025482177734e-01 3.412480056285858154e-01 8.698800206184387207e-02 9.030389785766601562e-01 2.101030051708221436e-01 -4.696129858493804932e-01 5.441299825906753540e-02 -5.685150027275085449e-01 4.523999989032745361e-01 4.347899854183197021e-01 -2.132822036743164062e+00 -6.089469790458679199e-01 4.534099996089935303e-01 1.822279989719390869e-01 1.859820038080215454e-01 9.457989931106567383e-01 -2.932609915733337402e-01 7.672599703073501587e-02 8.586350083351135254e-01 -9.764469861984252930e-01 4.022989869117736816e-01 -5.937100052833557129e-01 -1.232462048530578613e+00 -8.919000029563903809e-01 -9.813050031661987305e-01 7.774900197982788086e-01 -2.738749980926513672e-01 2.717010080814361572e-01 -7.282509803771972656e-01 4.559530019760131836e-01 -2.897169888019561768e-01 1.563500054180622101e-02 -2.336840033531188965e-01 -4.928289949893951416e-01 3.021900057792663574e-01 -2.414399944245815277e-02 -2.147749960422515869e-01 3.989250063896179199e-01 -1.132192015647888184e+00 3.731589913368225098e-01 -1.653739959001541138e-01 -1.309619992971420288e-01 -1.123146057128906250e+00 -1.507452011108398438e+00 -6.979499757289886475e-02 4.433409869670867920e-01 2.517560124397277832e-01 5.534600019454956055e-01 1.581739932298660278e-01 -8.774399757385253906e-02 -1.051300019025802612e-01 3.700140118598937988e-01 4.715789854526519775e-01 5.183519721031188965e-01 -8.314900100231170654e-02 9.411700069904327393e-02 -4.664419889450073242e-01 2.212679982185363770e-01 -1.896950006484985352e-01 4.710479974746704102e-01 -5.191360116004943848e-01 -1.006196022033691406e+00 3.167620003223419189e-01 -4.526700079441070557e-02 2.818300016224384308e-02 -2.130299992859363556e-02 6.164060235023498535e-01 -6.689000129699707031e-01 -1.479189991950988770e-01 1.466020047664642334e-01 -1.744849979877471924e-01 1.043540000915527344e+00 7.884690165519714355e-01 -7.299360036849975586e-01 1.797640025615692139e-01 3.756200149655342102e-02 -2.118169963359832764e-01 -5.531030297279357910e-01 2.310650050640106201e-01 -3.692489862442016602e-01 6.114330291748046875e-01 -7.416660189628601074e-01 -6.417599916458129883e-01 -1.769720017910003662e-01 -5.122529864311218262e-01 4.305120110511779785e-01 -5.733960270881652832e-01 1.128970012068748474e-01 -1.994449943304061890e-01 8.678100258111953735e-02 -2.331819981336593628e-01 1.727200001478195190e-01 -1.687200069427490234e-01 -1.756200008094310760e-02 -2.489790022373199463e-01 6.328799724578857422e-01 -6.703889966011047363e-01 4.127190113067626953e-01 3.865349888801574707e-01 -9.005700051784515381e-02 2.250840067863464355e-01 3.111009895801544189e-01 2.314800024032592773e-02 2.044560015201568604e-01 -2.909100055694580078e-01 9.437829852104187012e-01 -1.648550033569335938e+00 1.246508002281188965e+00 -5.491570234298706055e-01 1.358963012695312500e+00 -6.570330262184143066e-01 -7.809899747371673584e-02 4.761120080947875977e-01 2.616539895534515381e-01 1.391669958829879761e-01 -8.806400001049041748e-02 6.086799874901771545e-02 -4.939790070056915283e-01 -3.333179950714111328e-01 1.460260003805160522e-01 -1.817390024662017822e-01 5.164930224418640137e-01 1.965889930725097656e-01 -3.113870024681091309e-01 8.087299764156341553e-02 5.576379895210266113e-01 -2.832449972629547119e-01 2.469300031661987305e-01 -5.244499817490577698e-02 3.515560030937194824e-01 4.408670067787170410e-01 -1.352879047393798828e+00 -3.389990031719207764e-01 2.940970063209533691e-01 -9.353780150413513184e-01 9.690729975700378418e-01 1.742207050323486328e+00 9.356499910354614258e-01 -9.763400256633758545e-02 -9.052349925041198730e-01 -4.245980083942413330e-01 2.973420023918151855e-01 6.961429715156555176e-01 -1.102129966020584106e-01 3.494040071964263916e-01 -2.454259991645812988e-01 3.677589893341064453e-01 4.196049869060516357e-01 1.249940022826194763e-01 1.592600047588348389e-01 -2.235579937696456909e-01 6.740000098943710327e-02 3.615179955959320068e-01 3.090910017490386963e-01 -8.229299634695053101e-02 1.147292017936706543e+00 2.564339935779571533e-01 -4.611079990863800049e-01 -4.952850043773651123e-01 5.570260286331176758e-01 -1.166833996772766113e+00 4.921869933605194092e-01 5.217390060424804688e-01 -2.612819969654083252e-01 -9.890200197696685791e-02 2.584649920463562012e-01 1.305825948715209961e+00 -2.179760038852691650e-01 -1.335799973458051682e-02 1.372089982032775879e-01 -7.653199881315231323e-02 -1.196549981832504272e-01 -3.332310020923614502e-01 4.380300045013427734e-01 -1.172917962074279785e+00 -5.438429713249206543e-01 -6.197749972343444824e-01 3.907819986343383789e-01 5.051270127296447754e-01 -5.226099863648414612e-02 9.595900028944015503e-02 1.261059939861297607e-01 4.133900105953216553e-01 -1.183670014142990112e-01 3.365640044212341309e-01 -3.910270035266876221e-01 -7.410299777984619141e-02 1.655269980430603027e+00 -4.386400058865547180e-02 -4.364309906959533691e-01 4.805600047111511230e-01 3.816330134868621826e-01 2.063219994306564331e-01 -3.662660121917724609e-01 5.923159718513488770e-01 2.161130011081695557e-01 -2.042919993400573730e-01 -1.103480011224746704e-01 2.497050017118453979e-01 -1.673000049777328968e-03 1.422909945249557495e-01 -1.109318017959594727e+00 5.931310057640075684e-01 -2.655180096626281738e-01 -5.293999984860420227e-02 3.853060007095336914e-01 2.172999978065490723e-01 -7.657819986343383789e-01 5.033270120620727539e-01 -8.675670027732849121e-01 1.036265015602111816e+00 -1.327800005674362183e-01 4.599719941616058350e-01 -4.476790130138397217e-01 1.293233990669250488e+00
-6.460289955139160156e-01 -3.426159918308258057e-01 1.827923059463500977e+00 4.315145015716552734e+00 7.966780066490173340e-01 -2.508299984037876129e-02 1.064296960830688477e+00 -5.556399822235107422e-01 -2.377800047397613525e-01 -1.878738045692443848e+00 -7.162900269031524658e-02 5.915699899196624756e-02 2.879399992525577545e-02 -7.217170000076293945e-01 -2.179609984159469604e-01 7.935339808464050293e-01 8.725000172853469849e-02 1.376693010330200195e+00 2.158730030059814453e-01 -1.173336029052734375e+00 4.176410138607025146e-01 -1.428954005241394043e+00 -4.322103977203369141e+00 -2.204879969358444214e-01 -8.662800192832946777e-01 -3.469499945640563965e-01 -2.295597076416015625e+00 -1.112442970275878906e+00 8.111230134963989258e-01 -3.847639858722686768e-01 2.153499983251094818e-02 4.173620045185089111e-01 8.173050284385681152e-01 -1.370005011558532715e+00 1.845983028411865234e+00 -8.401399850845336914e-02 2.173040062189102173e-01 -1.311815977096557617e+00 2.084610015153884888e-01 3.055900037288665771e-01 1.815793991088867188e+00 -1.255879998207092285e+00 5.192300081253051758e-01 2.624120116233825684e-01 -4.278270006179809570e-01 -8.667399883270263672e-01 -8.441500365734100342e-02 -4.157379865646362305e-01 7.075610160827636719e-01 -1.021510004997253418e+00 -1.158972978591918945e+00 -9.361969828605651855e-01 -3.590713024139404297e+00 6.960710287094116211e-01 1.169203042984008789e+00 -1.320976972579956055e+00 7.321649789810180664e-01 -1.387122035026550293e+00 -1.324277043342590332e+00 -9.671549797058105469e-01 -9.192450046539306641e-01 6.001399755477905273e-01 -1.984390020370483398e-01 1.474416017532348633e+00 1.316699981689453125e-01 1.164908051490783691e+00 -6.733530163764953613e-01 3.185960054397583008e-01 1.325353026390075684e+00 1.219501972198486328e+00 -4.302070140838623047e-01 -8.531290292739868164e-01 -7.471060156822204590e-01 1.213250011205673218e-01 4.603149890899658203e-01 -1.460459977388381958e-01 -1.327129960060119629e+00 -5.802130103111267090e-01 9.305949807167053223e-01 1.717772006988525391e+00 1.462473988533020020e+00 -2.408239990472793579e-01 -2.089219987392425537e-01 -2.424499951303005219e-02 -6.077200174331665039e-01 -2.257869958877563477e+00 2.980607032775878906e+00 -3.715020120143890381e-01 3.572930097579956055e-01 6.583489775657653809e-01 -6.369500160217285156e-01 -2.392596006393432617e+00 -1.905259937047958374e-01 -2.497870028018951416e-01 1.563881039619445801e+00 -2.686749994754791260e-01 -8.193740248680114746e-01 -1.590459942817687988e-01 -1.033686995506286621e+00 1.308660984039306641e+00 5.378140211105346680e-01 -9.316220283508300781e-01 -8.545960187911987305e-01 -4.795899987220764160e-01 1.348620057106018066e-01 -3.460041046142578125e+00 -3.552849888801574707e-01 -2.477809935808181763e-01 -2.036210000514984131e-01 1.237059980630874634e-01 -1.254300028085708618e-02 -7.823579907417297363e-01 4.355440139770507812e-01 3.508149981498718262e-01 3.690949976444244385e-01 -1.075050011277198792e-01 -1.442710012197494507e-01 1.815006017684936523e+00 3.645629882812500000e-01 -2.553000114858150482e-03 -1.710350066423416138e-01 7.039250135421752930e-01 -1.027423024177551270e+00 3.572599962353706360e-02 -2.210599929094314575e-01 1.283668041229248047e+00 -8.730799704790115356e-02 3.513700142502784729e-02 -1.487154006958007812e+00 -4.163590073585510254e-01 -1.932300031185150146e-01 -6.547179818153381348e-01 -1.471170037984848022e-01 6.072210073471069336e-01 -6.056550145149230957e-01 -1.580000072717666626e-01 2.351980060338973999e-01 2.642360031604766846e-01 9.376019835472106934e-01 1.177670001983642578e+00 1.394790053367614746e+00 5.374270081520080566e-01 3.198657035827636719e+00 -1.206585049629211426e+00 -1.041539981961250305e-01 6.532999873161315918e-02 1.259904026985168457e+00 1.064244031906127930e+00 8.605200052261352539e-02 8.564429879188537598e-01 1.705044984817504883e+00 -1.521633028984069824e+00 4.717429876327514648e-01 -5.666419863700866699e-01 6.893330216407775879e-01 3.954099863767623901e-02 1.617580056190490723e-01 -1.159487962722778320e+00 -3.101849853992462158e-01 -3.980489969253540039e-01 9.722639918327331543e-01 -3.889270126819610596e-01 -2.535249888896942139e-01 -4.460150003433227539e-01 -5.018929839134216309e-01 1.606397032737731934e+00 -1.425912022590637207e+00 5.402839779853820801e-01 -6.077209711074829102e-01 -9.516300261020660400e-02 5.807160139083862305e-01 3.912380039691925049e-01 1.447023987770080566e+00 -7.518150210380554199e-01 -1.947319954633712769e-01 -9.179430007934570312e-01 2.514240145683288574e-01 -1.874739974737167358e-01 -1.037832021713256836e+00 1.063622951507568359e+00 -2.344380021095275879e-01 -3.766500055789947510e-01 -7.812000066041946411e-02 -2.833720147609710693e-01 1.346209943294525146e-01 4.973959922790527344e-01 3.440879881381988525e-01 -1.945450007915496826e-01 2.442709952592849731e-01 6.029019951820373535e-01 2.786499857902526855e-01 2.468560039997100830e-01 -6.559709906578063965e-01 6.319260001182556152e-01 7.647529840469360352e-01 1.011400017887353897e-02 5.562700033187866211e-01 4.567419886589050293e-01 5.314310193061828613e-01 1.710800051689147949e+00 1.578781962394714355e+00 2.119000069797039032e-03 1.136582016944885254e+00 -1.579337954521179199e+00 -1.916435956954956055e+00 1.153399944305419922e+00 -5.920330286026000977e-01 6.105989813804626465e-01 -1.588670015335083008e-01 3.016999922692775726e-03 1.060264945030212402e+00 -5.275189876556396484e-01 4.841459989547729492e-01 4.273590147495269775e-01 1.774103999137878418e+00 4.115900099277496338e-01 8.566319942474365234e-01 -4.418030083179473877e-01 -1.252640038728713989e-01 -1.390540003776550293e-01 6.049500033259391785e-02 1.548770070075988770e-01 -1.411640048027038574e-01 -1.312050074338912964e-01 -1.375875949859619141e+00 -1.213614940643310547e+00 -1.793299987912178040e-02 3.040710091590881348e-01 -4.619149863719940186e-01 3.712499886751174927e-02 -3.604570031166076660e-01 1.169690012931823730e+00 -3.563469946384429932e-01 -7.799919843673706055e-01 -1.169752955436706543e+00 5.306010246276855469e-01 4.758799970149993896e-01 -1.835509985685348511e-01 6.324599683284759521e-02 5.039240121841430664e-01 -8.437199890613555908e-02 -3.520430028438568115e-01 -9.336700290441513062e-02 8.539710044860839844e-01 1.267659962177276611e-01 -5.127900242805480957e-01 6.399149894714355469e-01 5.838739871978759766e-01 1.027930006384849548e-01 -5.364090204238891602e-01 7.418299913406372070e-01 4.323720037937164307e-01 -7.827529907226562500e-01 -8.478950262069702148e-01 -1.269199978560209274e-02 -1.857270002365112305e-01 -8.533049821853637695e-01 -1.417557954788208008e+00 2.274609953165054321e-01 1.784610003232955933e-01 4.381699860095977783e-02 1.245000027120113373e-02 2.406200021505355835e-02 -2.111800014972686768e-02 -9.682500362396240234e-02 2.768531084060668945e+00 -5.367220044136047363e-01 7.638210058212280273e-01 -5.822359919548034668e-01 -2.314032077789306641e+00 4.926590025424957275e-01 1.363489925861358643e-01 -7.224280238151550293e-01 1.764110028743743896e-01 5.618969798088073730e-01 -7.667800039052963257e-02 9.087550044059753418e-01 7.577170133590698242e-01 -2.818480134010314941e-01 -3.059700131416320801e-01 1.706477046012878418e+00 5.220490097999572754e-01 -9.158299863338470459e-02 1.130899973213672638e-02 -5.361099913716316223e-02 3.746350109577178955e-01 -1.427335023880004883e+00 1.404130011796951294e-01
-9.062060117721557617e-01 -6.363779902458190918e-01 2.177937984466552734e+00 -6.370869874954223633e-01 4.164949953556060791e-01 2.877370119094848633e-01 3.482199832797050476e-02 1.476480066776275635e-01 -1.346099972724914551e-01 -1.097489967942237854e-01 -1.185453057289123535e+00 -9.803810119628906250e-01 1.743721008300781250e+00 -1.449540972709655762e+00 -7.837110161781311035e-01 -1.354691982269287109e+00 9.476810097694396973e-01 1.386500000953674316e-01 7.984669804573059082e-01 3.108652114868164062e+00 -6.056190133094787598e-01 5.193160176277160645e-01 -4.568290114402770996e-01 1.589568972587585449e+00 4.176929891109466553e-01 -1.172024011611938477e+00 -1.888746976852416992e+00 1.488952994346618652e+00 -2.195013046264648438e+00 1.272258043289184570e+00 1.031208992004394531e+00 -2.306300029158592224e-02 -2.833249866962432861e-01 -4.940330088138580322e-01 -3.162789940834045410e-01 -6.745409965515136719e-01 -8.959040045738220215e-01 -8.344489932060241699e-01 -1.146906018257141113e+00 -3.378250002861022949e-01 -1.530400011688470840e-02 -6.570039987564086914e-01 -3.260149955749511719e-01 2.956050038337707520e-01 5.991770029067993164e-01 -6.288620233535766602e-01 3.873260021209716797e-01 -1.440302014350891113e+00 -2.104420065879821777e-01 -4.339500144124031067e-02 2.861370146274566650e-01 9.036110043525695801e-01 2.211119979619979858e-01 -1.162580028176307678e-01 -8.144980072975158691e-01 -1.505242943763732910e+00 -5.997800081968307495e-02 1.200600028038024902e+00 1.455925941467285156e+00 -2.148653030395507812e+00 2.099128961563110352e+00 -8.724870085716247559e-01 -4.711120128631591797e-01 -4.887380003929138184e-01 4.234699904918670654e-02 -7.921350002288818359e-01 9.986810088157653809e-01 -1.087553977966308594e+00 3.057839870452880859e-01 9.101909995079040527e-01 -1.290704011917114258e+00 -4.677209854125976562e-01 -8.467900007963180542e-02 -1.205335021018981934e+00 1.311825990676879883e+00 2.672637939453125000e+00 1.199623942375183105e+00 4.255700111389160156e-02 9.371359944343566895e-01 7.673460245132446289e-01 -1.927260011434555054e-01 -1.082512021064758301e+00 1.561617016792297363e+00 -6.048709750175476074e-01 -9.584370255470275879e-01 -1.101969003677368164e+00 -6.579470038414001465e-01 2.166992902755737305e+00 -1.094601988792419434e+00 7.041100263595581055e-01 2.403264045715332031e+00 7.147880196571350098e-01 -1.372877955436706543e+00 1.600459963083267212e-01 -2.624279856681823730e-01 -7.342500090599060059e-01 -4.042209982872009277e-01 1.229704976081848145e+00 -1.541100978851318359e+00 7.591390013694763184e-01 -8.249149918556213379e-01 -4.009090065956115723e-01 1.119310036301612854e-01 -1.110680028796195984e-01 -4.812400043010711670e-02 1.738210022449493408e-01 1.484349966049194336e-01 -5.107900127768516541e-02 2.653290033340454102e-01 2.552900090813636780e-02 1.611090004444122314e-01 -1.713059991598129272e-01 -1.890680044889450073e-01 2.155200019478797913e-02 -1.853239983320236206e-01 -6.133620142936706543e-01 1.259710043668746948e-01 4.245139956474304199e-01 1.502450942993164062e+00 3.336530029773712158e-01 -1.277413010597229004e+00 4.441919922828674316e-01 1.036504983901977539e+00 -2.738569974899291992e-01 7.839180231094360352e-01 -3.385919928550720215e-01 7.148439884185791016e-01 -2.632999978959560394e-02 4.386619925498962402e-01 1.140535950660705566e+00 -1.209902048110961914e+00 -1.041093945503234863e+00 -1.028110012412071228e-01 -1.097478032112121582e+00 1.452690005302429199e+00 -7.798759937286376953e-01 -1.974627017974853516e+00 -8.258069753646850586e-01 8.351000025868415833e-03 9.478170275688171387e-01 -2.146970987319946289e+00 -5.596569776535034180e-01 -4.843020141124725342e-01 5.046510100364685059e-01 -7.724090218544006348e-01 1.371863961219787598e+00 2.203174114227294922e+00 3.245820105075836182e-01 -1.325549930334091187e-01 -3.294720053672790527e-01 2.970159947872161865e-01 9.763739705085754395e-01 -1.932290047407150269e-01 -1.916661977767944336e+00 1.430763959884643555e+00 -3.704169988632202148e-01 -1.168205976486206055e+00 1.023230031132698059e-01 2.150689959526062012e-01 -1.142439991235733032e-01 2.400660067796707153e-01 -5.808300152420997620e-02 -2.076599933207035065e-02 1.882890015840530396e-01 3.877099975943565369e-02 5.935249924659729004e-01 1.150019988417625427e-01 6.382390260696411133e-01 -3.642899915575981140e-02 -1.434420049190521240e-01 3.521220088005065918e-01 9.518839716911315918e-01 8.629540205001831055e-01 8.249899744987487793e-01 1.355569958686828613e-01 3.323589861392974854e-01 4.455339908599853516e-01 1.589169949293136597e-01 -2.341749966144561768e-01 2.256200015544891357e-01 1.231490001082420349e-01 -2.795499861240386963e-01 -9.059280157089233398e-01 -1.608980000019073486e-01 1.626809984445571899e-01 5.209370255470275879e-01 2.637029886245727539e-01 1.265100017189979553e-02 1.302647948265075684e+00 3.728469908237457275e-01 -5.363270044326782227e-01 1.541340053081512451e-01 5.119299888610839844e-01 3.407799899578094482e-01 1.721079945564270020e-01 -2.629939913749694824e-01 -2.117069959640502930e-01 -3.682709932327270508e-01 -2.621540129184722900e-01 3.917450010776519775e-01 -2.327869981527328491e-01 -7.641789913177490234e-01 -4.189139902591705322e-01 2.691360116004943848e-01 6.065269708633422852e-01 4.046410024166107178e-01 7.326980233192443848e-01 1.304859966039657593e-01 1.127568006515502930e+00 -5.869020223617553711e-01 9.457999840378761292e-03 6.336519718170166016e-01 7.871810197830200195e-01 -1.066113948822021484e+00 -2.408359050750732422e+00 1.298290014266967773e+00 -1.485463976860046387e+00 7.053400278091430664e-01 3.585189878940582275e-01 -6.307809948921203613e-01 1.286280006170272827e-01 1.606809943914413452e-01 3.730809986591339111e-01 9.808000177145004272e-03 1.075652003288269043e+00 1.071290001273155212e-01 4.010599851608276367e-02 -3.332619965076446533e-01 -1.247158050537109375e+00 4.861109852790832520e-01 -1.475633978843688965e+00 1.755030006170272827e-01 5.948429703712463379e-01 1.117184042930603027e+00 -4.254760146141052246e-01 3.428579866886138916e-01 4.290750026702880859e-01 -5.087799951434135437e-02 5.728179812431335449e-01 -6.325999647378921509e-02 -3.812199831008911133e-02 2.424800023436546326e-02 -1.107038021087646484e+00 1.664479970932006836e-01 1.164867043495178223e+00 -2.640399932861328125e-01 1.755429953336715698e-01 -8.600760102272033691e-01 -1.066475033760070801e+00 -2.576066017150878906e+00 -3.109819889068603516e-01 9.978830218315124512e-01 -1.730729937553405762e-01 6.915490031242370605e-01 2.424180060625076294e-01 -7.356560230255126953e-01 -1.481979966163635254e+00 1.460549980401992798e-01 7.656069993972778320e-01 -2.748189866542816162e-01 -7.003719806671142578e-01 2.584489881992340088e-01 -1.328315019607543945e+00 1.178763031959533691e+00 3.229480087757110596e-01 9.938989877700805664e-01 7.602959871292114258e-01 1.099910020828247070e+00 3.428379893302917480e-01 -1.787999994121491909e-03 -8.329420089721679688e-01 2.084289938211441040e-01 -1.224563956260681152e+00 -1.338405013084411621e+00 8.605290055274963379e-01 5.343899726867675781e-01 -2.342195987701416016e+00 -3.331109881401062012e-01 3.776569962501525879e-01 -3.108139932155609131e-01 -1.123360022902488708e-01 9.432749748229980469e-01 -2.740240097045898438e-01 1.534859985113143921e-01 5.597630143165588379e-01 8.111800253391265869e-02 -1.653400063514709473e-02 3.607400134205818176e-02