
     Program PWSCF v.5.4.0 starts on 22Sep2019 at 18: 8:35 

     This program is part of the open-source Quantum ESPRESSO suite
     for quantum simulation of materials; please cite
         "P. Giannozzi et al., J. Phys.:Condens. Matter 21 395502 (2009);
          URL http://www.quantum-espresso.org", 
     in publications or presentations arising from this work. More details at
     http://www.quantum-espresso.org/quote

           HOST :    @host@
           ARCH :    
             CC :    cc
            CPP :    cpp
            F90 :    mpif90
            F77 :    gfortran
         DFLAGS :    -D__GFORTRAN -D__STD_F95 -D__FFTW3 -D__MPI -D__PARA
      BLAS LIBS :    -lopenblas
    LAPACK LIBS :    -lopenblas
       FFT LIBS :    -lfftw3
      MASS LIBS :    

     Parallel version (MPI), running on    28 processors
     R & G space division:  proc/nbgrp/npool/nimage =      28
     Waiting for input...
     Reading input from standard input
Warning: card &IONS ignored
Warning: card / ignored
Warning: card &CELL ignored
Warning: card / ignored

     Current dimensions of program PWSCF are:
     Max number of different atomic species (ntypx) = 10
     Max number of k-points (npk) =  40000
     Max angular momentum in pseudopotentials (lmaxx) =  3

     IMPORTANT: XC functional enforced from input :
     Exchange-correlation      = PBE ( 1  4  3  4 0 0)
     Any further DFT definition will be discarded
     Please, verify this is what you really want


     gamma-point specific algorithms are used

     Subspace diagonalization in iterative solution of the eigenvalue problem:
     a serial algorithm will be used


     Parallelization info
     --------------------
     sticks:   dense  smooth     PW     G-vecs:    dense   smooth      PW
     Min         445     445    110                37558    37558    4694
     Max         448     448    112                37564    37564    4708
     Sum       12517   12517   3125              1051747  1051747  131683
     Tot        6259    6259   1563



     bravais-lattice index     =            1
     lattice parameter (alat)  =      18.8973  a.u.
     unit-cell volume          =    6748.3346 (a.u.)^3
     number of atoms/cell      =            5
     number of atomic types    =            2
     number of electrons       =         8.00
     number of Kohn-Sham states=            4
     kinetic-energy cutoff     =     110.0000  Ry
     charge density cutoff     =     440.0000  Ry
     convergence threshold     =      1.0E-06
     mixing beta               =       0.5000
     number of iterations used =            8  plain     mixing
     Exchange-correlation      = PBE ( 1  4  3  4 0 0)

     celldm(1)=  18.897261  celldm(2)=   0.000000  celldm(3)=   0.000000
     celldm(4)=   0.000000  celldm(5)=   0.000000  celldm(6)=   0.000000

     crystal axes: (cart. coord. in units of alat)
               a(1) = (   1.000000   0.000000   0.000000 )  
               a(2) = (   0.000000   1.000000   0.000000 )  
               a(3) = (   0.000000   0.000000   1.000000 )  

     reciprocal axes: (cart. coord. in units 2 pi/alat)
               b(1) = (  1.000000  0.000000  0.000000 )  
               b(2) = (  0.000000  1.000000  0.000000 )  
               b(3) = (  0.000000  0.000000  1.000000 )  


     PseudoPot. # 1 for  H read from file:
     ../pseudo/H.tm.pbe.UPF
     MD5 check sum: 4b614d66af87240b7a5107bfa527a767
     Pseudo is Norm-conserving, Zval =  1.0
     Generated using "atomic" code by A. Dal Corso  v.5.2.0
     Using radial grid of  929 points,  0 beta functions with: 

     PseudoPot. # 2 for  C read from file:
     ../pseudo/C.tm.pbe.UPF
     MD5 check sum: a4f27fcb9b24331b00ace8e732a7e062
     Pseudo is Norm-conserving, Zval =  4.0
     Generated using "atomic" code by A. Dal Corso  v.5.2.0
     Using radial grid of 1073 points,  1 beta functions with: 
                l(1) =   1

     atomic species   valence    mass     pseudopotential
        H              1.00     1.00000      H( 1.00)
        C              4.00     1.00000      C( 1.00)

     No symmetry found



   Cartesian axes

     site n.     atom                  positions (alat units)
         1           H   tau(   1) = (   0.5441610   0.3959710   0.3552920  )
         2           H   tau(   2) = (   0.4000830   0.4715710   0.4364270  )
         3           H   tau(   3) = (   0.5657700   0.5532500   0.4374030  )
         4           H   tau(   4) = (   0.5359920   0.4008210   0.5299200  )
         5           C   tau(   5) = (   0.5101010   0.4570070   0.4388690  )

     number of k points=     1
                       cart. coord. in units 2pi/alat
        k(    1) = (   0.0000000   0.0000000   0.0000000), wk =   2.0000000

     Dense  grid:   525874 G-vectors     FFT dimensions: ( 128, 128, 128)

     Largest allocated arrays     est. size (Mb)     dimensions
        Kohn-Sham Wavefunctions         0.14 Mb     (    2354,    4)
        NL pseudopotentials             0.11 Mb     (    2354,    3)
        Each V/rho on FFT grid          1.25 Mb     (   81920)
        Each G-vector array             0.14 Mb     (   18782)
        G-vector shells                 0.02 Mb     (    2785)
     Largest temporary arrays     est. size (Mb)     dimensions
        Auxiliary wavefunctions         0.29 Mb     (    2354,   16)
        Each subspace H/S matrix        0.00 Mb     (      16,   16)
        Each <psi_i|beta_j> matrix      0.00 Mb     (       3,    4)
        Arrays for rho mixing          10.00 Mb     (   81920,    8)

     Initial potential from superposition of free atoms
     Check: negative starting charge=   -0.000382

     starting charge    7.99992, renormalised to    8.00000

     negative rho (up, down):  3.819E-04 0.000E+00
     Starting wfc are    8 randomized atomic wfcs

     total cpu time spent up to now is        3.0 secs

     per-process dynamical memory:   430.9 Mb

     Self-consistent Calculation

     iteration #  1     ecut=   110.00 Ry     beta=0.50
     Davidson diagonalization with overlap
     ethr =  1.00E-02,  avg # of iterations =  2.0

     negative rho (up, down):  1.805E-04 0.000E+00

     total cpu time spent up to now is        3.5 secs

     total energy              =     -16.02235868 Ry
     Harris-Foulkes estimate   =     -16.40335552 Ry
     estimated scf accuracy    <       0.67741102 Ry

     iteration #  2     ecut=   110.00 Ry     beta=0.50
     Davidson diagonalization with overlap
     ethr =  8.47E-03,  avg # of iterations =  2.0

     negative rho (up, down):  9.485E-05 0.000E+00

     total cpu time spent up to now is        3.9 secs

     total energy              =     -16.15291169 Ry
     Harris-Foulkes estimate   =     -16.17229245 Ry
     estimated scf accuracy    <       0.05028079 Ry

     iteration #  3     ecut=   110.00 Ry     beta=0.50
     Davidson diagonalization with overlap
     ethr =  6.29E-04,  avg # of iterations =  1.0

     negative rho (up, down):  5.320E-06 0.000E+00

     total cpu time spent up to now is        4.4 secs

     total energy              =     -16.15128705 Ry
     Harris-Foulkes estimate   =     -16.15674746 Ry
     estimated scf accuracy    <       0.01147644 Ry

     iteration #  4     ecut=   110.00 Ry     beta=0.50
     Davidson diagonalization with overlap
     ethr =  1.43E-04,  avg # of iterations =  2.0

     negative rho (up, down):  5.021E-06 0.000E+00

     total cpu time spent up to now is        4.8 secs

     total energy              =     -16.15323857 Ry
     Harris-Foulkes estimate   =     -16.15554600 Ry
     estimated scf accuracy    <       0.00533665 Ry

     iteration #  5     ecut=   110.00 Ry     beta=0.50
     Davidson diagonalization with overlap
     ethr =  6.67E-05,  avg # of iterations =  1.0

     negative rho (up, down):  1.442E-06 0.000E+00

     total cpu time spent up to now is        5.2 secs

     total energy              =     -16.15347133 Ry
     Harris-Foulkes estimate   =     -16.15368990 Ry
     estimated scf accuracy    <       0.00041077 Ry

     iteration #  6     ecut=   110.00 Ry     beta=0.50
     Davidson diagonalization with overlap
     ethr =  5.13E-06,  avg # of iterations =  3.0

     total cpu time spent up to now is        5.8 secs

     total energy              =     -16.15370585 Ry
     Harris-Foulkes estimate   =     -16.15375443 Ry
     estimated scf accuracy    <       0.00010573 Ry

     iteration #  7     ecut=   110.00 Ry     beta=0.50
     Davidson diagonalization with overlap
     ethr =  1.32E-06,  avg # of iterations =  2.0

     total cpu time spent up to now is        6.4 secs

     total energy              =     -16.15372318 Ry
     Harris-Foulkes estimate   =     -16.15372359 Ry
     estimated scf accuracy    <       0.00000202 Ry

     iteration #  8     ecut=   110.00 Ry     beta=0.50
     Davidson diagonalization with overlap
     ethr =  2.53E-08,  avg # of iterations =  1.0

     total cpu time spent up to now is        6.8 secs

     total energy              =     -16.15372301 Ry
     Harris-Foulkes estimate   =     -16.15372328 Ry
     estimated scf accuracy    <       0.00000125 Ry

     iteration #  9     ecut=   110.00 Ry     beta=0.50
     Davidson diagonalization with overlap
     ethr =  1.56E-08,  avg # of iterations =  1.0

     total cpu time spent up to now is        7.1 secs

     End of self-consistent calculation

          k = 0.0000 0.0000 0.0000 ( 65842 PWs)   bands (ev):

   -16.7797  -9.3551  -9.2329  -9.0763

     highest occupied level (ev):    -9.0763

!    total energy              =     -16.15372251 Ry
     Harris-Foulkes estimate   =     -16.15372303 Ry
     estimated scf accuracy    <       0.00000070 Ry

     The total energy is the sum of the following terms:

     one-electron contribution =     -40.02044774 Ry
     hartree contribution      =      20.83298860 Ry
     xc contribution           =      -6.32337912 Ry
     ewald contribution        =       9.35711576 Ry

     convergence has been achieved in   9 iterations

     Forces acting on atoms (Ry/au):

     atom    1 type  1   force =    -0.00421114   -0.00213990   -0.01319998
     atom    2 type  1   force =     0.01958556    0.00213638   -0.00439042
     atom    3 type  1   force =    -0.01579939   -0.01400518    0.00217706
     atom    4 type  1   force =    -0.00147856    0.00741267    0.00145058
     atom    5 type  2   force =     0.00190353    0.00659602    0.01396276

     Total force =     0.036821     Total SCF correction =     0.000502


     entering subroutine stress ...

          total   stress  (Ry/bohr**3)                   (kbar)     P=   -0.79
  -0.00001103  -0.00000251   0.00000054         -1.62     -0.37      0.08
  -0.00000251  -0.00000651   0.00000243         -0.37     -0.96      0.36
   0.00000054   0.00000243   0.00000146          0.08      0.36      0.22


     init_run     :      2.55s CPU      2.58s WALL (       1 calls)
     electrons    :      4.09s CPU      4.15s WALL (       1 calls)
     forces       :      1.05s CPU      1.05s WALL (       1 calls)
     stress       :      1.26s CPU      1.27s WALL (       1 calls)

     Called by init_run:
     wfcinit      :      0.19s CPU      0.19s WALL (       1 calls)
     potinit      :      1.04s CPU      1.05s WALL (       1 calls)

     Called by electrons:
     c_bands      :      1.59s CPU      1.60s WALL (       9 calls)
     sum_band     :      0.50s CPU      0.50s WALL (       9 calls)
     v_of_rho     :      1.92s CPU      1.97s WALL (      10 calls)
     mix_rho      :      0.26s CPU      0.26s WALL (       9 calls)

     Called by c_bands:
     init_us_2    :      0.04s CPU      0.05s WALL (      19 calls)
     regterg      :      1.56s CPU      1.56s WALL (       9 calls)

     Called by sum_band:

     Called by *egterg:
     h_psi        :      1.69s CPU      1.69s WALL (      25 calls)
     g_psi        :      0.01s CPU      0.01s WALL (      15 calls)
     rdiaghg      :      0.00s CPU      0.00s WALL (      24 calls)

     Called by h_psi:
     add_vuspsi   :      0.00s CPU      0.00s WALL (      25 calls)

     General routines
     calbec       :      0.47s CPU      0.47s WALL (      30 calls)
     fft          :      1.85s CPU      1.90s WALL (     117 calls)
     fftw         :      1.25s CPU      1.25s WALL (     122 calls)

     Parallel routines
     fft_scatter  :      1.28s CPU      1.32s WALL (     239 calls)

     PWSCF        :     9.32s CPU         9.47s WALL


   This run was terminated on:  18: 8:45  22Sep2019            

=------------------------------------------------------------------------------=
   JOB DONE.
=------------------------------------------------------------------------------=
