
     Program PWSCF v.5.4.0 starts on 22Sep2019 at 19:35:16 

     This program is part of the open-source Quantum ESPRESSO suite
     for quantum simulation of materials; please cite
         "P. Giannozzi et al., J. Phys.:Condens. Matter 21 395502 (2009);
          URL http://www.quantum-espresso.org", 
     in publications or presentations arising from this work. More details at
     http://www.quantum-espresso.org/quote

           HOST :    @host@
           ARCH :    
             CC :    cc
            CPP :    cpp
            F90 :    mpif90
            F77 :    gfortran
         DFLAGS :    -D__GFORTRAN -D__STD_F95 -D__FFTW3 -D__MPI -D__PARA
      BLAS LIBS :    -lopenblas
    LAPACK LIBS :    -lopenblas
       FFT LIBS :    -lfftw3
      MASS LIBS :    

     Parallel version (MPI), running on    28 processors
     R & G space division:  proc/nbgrp/npool/nimage =      28
     Waiting for input...
     Reading input from standard input
Warning: card &IONS ignored
Warning: card / ignored
Warning: card &CELL ignored
Warning: card / ignored

     Current dimensions of program PWSCF are:
     Max number of different atomic species (ntypx) = 10
     Max number of k-points (npk) =  40000
     Max angular momentum in pseudopotentials (lmaxx) =  3

     IMPORTANT: XC functional enforced from input :
     Exchange-correlation      = PBE ( 1  4  3  4 0 0)
     Any further DFT definition will be discarded
     Please, verify this is what you really want


     gamma-point specific algorithms are used

     Subspace diagonalization in iterative solution of the eigenvalue problem:
     a serial algorithm will be used


     Parallelization info
     --------------------
     sticks:   dense  smooth     PW     G-vecs:    dense   smooth      PW
     Min         445     445    110                37558    37558    4694
     Max         448     448    112                37564    37564    4708
     Sum       12517   12517   3125              1051747  1051747  131683
     Tot        6259    6259   1563



     bravais-lattice index     =            1
     lattice parameter (alat)  =      18.8973  a.u.
     unit-cell volume          =    6748.3346 (a.u.)^3
     number of atoms/cell      =            5
     number of atomic types    =            2
     number of electrons       =         8.00
     number of Kohn-Sham states=            4
     kinetic-energy cutoff     =     110.0000  Ry
     charge density cutoff     =     440.0000  Ry
     convergence threshold     =      1.0E-06
     mixing beta               =       0.5000
     number of iterations used =            8  plain     mixing
     Exchange-correlation      = PBE ( 1  4  3  4 0 0)

     celldm(1)=  18.897261  celldm(2)=   0.000000  celldm(3)=   0.000000
     celldm(4)=   0.000000  celldm(5)=   0.000000  celldm(6)=   0.000000

     crystal axes: (cart. coord. in units of alat)
               a(1) = (   1.000000   0.000000   0.000000 )  
               a(2) = (   0.000000   1.000000   0.000000 )  
               a(3) = (   0.000000   0.000000   1.000000 )  

     reciprocal axes: (cart. coord. in units 2 pi/alat)
               b(1) = (  1.000000  0.000000  0.000000 )  
               b(2) = (  0.000000  1.000000  0.000000 )  
               b(3) = (  0.000000  0.000000  1.000000 )  


     PseudoPot. # 1 for  H read from file:
     ../pseudo/H.tm.pbe.UPF
     MD5 check sum: 4b614d66af87240b7a5107bfa527a767
     Pseudo is Norm-conserving, Zval =  1.0
     Generated using "atomic" code by A. Dal Corso  v.5.2.0
     Using radial grid of  929 points,  0 beta functions with: 

     PseudoPot. # 2 for  C read from file:
     ../pseudo/C.tm.pbe.UPF
     MD5 check sum: a4f27fcb9b24331b00ace8e732a7e062
     Pseudo is Norm-conserving, Zval =  4.0
     Generated using "atomic" code by A. Dal Corso  v.5.2.0
     Using radial grid of 1073 points,  1 beta functions with: 
                l(1) =   1

     atomic species   valence    mass     pseudopotential
        H              1.00     1.00000      H( 1.00)
        C              4.00     1.00000      C( 1.00)

     No symmetry found



   Cartesian axes

     site n.     atom                  positions (alat units)
         1           H   tau(   1) = (   0.5404410   0.4017230   0.3556180  )
         2           H   tau(   2) = (   0.4037660   0.4868010   0.4345060  )
         3           H   tau(   3) = (   0.5637290   0.5650420   0.4290310  )
         4           H   tau(   4) = (   0.5366500   0.4163170   0.5281040  )
         5           C   tau(   5) = (   0.5114690   0.4697030   0.4362440  )

     number of k points=     1
                       cart. coord. in units 2pi/alat
        k(    1) = (   0.0000000   0.0000000   0.0000000), wk =   2.0000000

     Dense  grid:   525874 G-vectors     FFT dimensions: ( 128, 128, 128)

     Largest allocated arrays     est. size (Mb)     dimensions
        Kohn-Sham Wavefunctions         0.14 Mb     (    2354,    4)
        NL pseudopotentials             0.11 Mb     (    2354,    3)
        Each V/rho on FFT grid          1.25 Mb     (   81920)
        Each G-vector array             0.14 Mb     (   18782)
        G-vector shells                 0.02 Mb     (    2785)
     Largest temporary arrays     est. size (Mb)     dimensions
        Auxiliary wavefunctions         0.29 Mb     (    2354,   16)
        Each subspace H/S matrix        0.00 Mb     (      16,   16)
        Each <psi_i|beta_j> matrix      0.00 Mb     (       3,    4)
        Arrays for rho mixing          10.00 Mb     (   81920,    8)

     Initial potential from superposition of free atoms
     Check: negative starting charge=   -0.000388

     starting charge    7.99992, renormalised to    8.00000

     negative rho (up, down):  3.879E-04 0.000E+00
     Starting wfc are    8 randomized atomic wfcs

     total cpu time spent up to now is        2.9 secs

     per-process dynamical memory:   430.8 Mb

     Self-consistent Calculation

     iteration #  1     ecut=   110.00 Ry     beta=0.50
     Davidson diagonalization with overlap
     ethr =  1.00E-02,  avg # of iterations =  2.0

     negative rho (up, down):  1.830E-04 0.000E+00

     total cpu time spent up to now is        3.3 secs

     total energy              =     -16.01901097 Ry
     Harris-Foulkes estimate   =     -16.41531597 Ry
     estimated scf accuracy    <       0.70391336 Ry

     iteration #  2     ecut=   110.00 Ry     beta=0.50
     Davidson diagonalization with overlap
     ethr =  8.80E-03,  avg # of iterations =  2.0

     negative rho (up, down):  9.553E-05 0.000E+00

     total cpu time spent up to now is        3.8 secs

     total energy              =     -16.15358004 Ry
     Harris-Foulkes estimate   =     -16.17241839 Ry
     estimated scf accuracy    <       0.04925837 Ry

     iteration #  3     ecut=   110.00 Ry     beta=0.50
     Davidson diagonalization with overlap
     ethr =  6.16E-04,  avg # of iterations =  1.0

     negative rho (up, down):  4.942E-06 0.000E+00

     total cpu time spent up to now is        4.2 secs

     total energy              =     -16.15171212 Ry
     Harris-Foulkes estimate   =     -16.15714195 Ry
     estimated scf accuracy    <       0.01139781 Ry

     iteration #  4     ecut=   110.00 Ry     beta=0.50
     Davidson diagonalization with overlap
     ethr =  1.42E-04,  avg # of iterations =  2.0

     negative rho (up, down):  4.819E-06 0.000E+00

     total cpu time spent up to now is        4.7 secs

     total energy              =     -16.15360484 Ry
     Harris-Foulkes estimate   =     -16.15568981 Ry
     estimated scf accuracy    <       0.00485524 Ry

     iteration #  5     ecut=   110.00 Ry     beta=0.50
     Davidson diagonalization with overlap
     ethr =  6.07E-05,  avg # of iterations =  1.0

     negative rho (up, down):  1.500E-06 0.000E+00

     total cpu time spent up to now is        5.1 secs

     total energy              =     -16.15378321 Ry
     Harris-Foulkes estimate   =     -16.15400052 Ry
     estimated scf accuracy    <       0.00040026 Ry

     iteration #  6     ecut=   110.00 Ry     beta=0.50
     Davidson diagonalization with overlap
     ethr =  5.00E-06,  avg # of iterations =  3.0

     negative rho (up, down):  1.285E-08 0.000E+00

     total cpu time spent up to now is        5.6 secs

     total energy              =     -16.15400281 Ry
     Harris-Foulkes estimate   =     -16.15405089 Ry
     estimated scf accuracy    <       0.00010415 Ry

     iteration #  7     ecut=   110.00 Ry     beta=0.50
     Davidson diagonalization with overlap
     ethr =  1.30E-06,  avg # of iterations =  2.0

     total cpu time spent up to now is        6.3 secs

     total energy              =     -16.15401974 Ry
     Harris-Foulkes estimate   =     -16.15402011 Ry
     estimated scf accuracy    <       0.00000183 Ry

     iteration #  8     ecut=   110.00 Ry     beta=0.50
     Davidson diagonalization with overlap
     ethr =  2.29E-08,  avg # of iterations =  1.0

     total cpu time spent up to now is        6.6 secs

     total energy              =     -16.15401960 Ry
     Harris-Foulkes estimate   =     -16.15401983 Ry
     estimated scf accuracy    <       0.00000111 Ry

     iteration #  9     ecut=   110.00 Ry     beta=0.50
     Davidson diagonalization with overlap
     ethr =  1.39E-08,  avg # of iterations =  1.0

     total cpu time spent up to now is        7.1 secs

     End of self-consistent calculation

          k = 0.0000 0.0000 0.0000 ( 65842 PWs)   bands (ev):

   -16.8647  -9.4839  -9.2682  -9.0502

     highest occupied level (ev):    -9.0502

!    total energy              =     -16.15401917 Ry
     Harris-Foulkes estimate   =     -16.15401961 Ry
     estimated scf accuracy    <       0.00000060 Ry

     The total energy is the sum of the following terms:

     one-electron contribution =     -40.36253324 Ry
     hartree contribution      =      21.00805566 Ry
     xc contribution           =      -6.35448128 Ry
     ewald contribution        =       9.55493968 Ry

     convergence has been achieved in   9 iterations

     Forces acting on atoms (Ry/au):

     atom    1 type  1   force =    -0.00125764    0.00620757   -0.01189495
     atom    2 type  1   force =    -0.00714856    0.00046322   -0.00326216
     atom    3 type  1   force =     0.00694292    0.00287600    0.00049328
     atom    4 type  1   force =     0.00309901    0.00710478    0.01252770
     atom    5 type  2   force =    -0.00163573   -0.01665157    0.00213614

     Total force =     0.028316     Total SCF correction =     0.000467


     entering subroutine stress ...

          total   stress  (Ry/bohr**3)                   (kbar)     P=    0.08
   0.00000125   0.00000129   0.00000097          0.18      0.19      0.14
   0.00000129  -0.00000348   0.00000036          0.19     -0.51      0.05
   0.00000097   0.00000036   0.00000388          0.14      0.05      0.57


     init_run     :      2.48s CPU      2.51s WALL (       1 calls)
     electrons    :      4.09s CPU      4.21s WALL (       1 calls)
     forces       :      0.91s CPU      0.91s WALL (       1 calls)
     stress       :      1.12s CPU      1.12s WALL (       1 calls)

     Called by init_run:
     wfcinit      :      0.11s CPU      0.11s WALL (       1 calls)
     potinit      :      1.05s CPU      1.06s WALL (       1 calls)

     Called by electrons:
     c_bands      :      1.61s CPU      1.64s WALL (       9 calls)
     sum_band     :      0.47s CPU      0.49s WALL (       9 calls)
     v_of_rho     :      1.95s CPU      2.01s WALL (      10 calls)
     mix_rho      :      0.24s CPU      0.25s WALL (       9 calls)

     Called by c_bands:
     init_us_2    :      0.04s CPU      0.05s WALL (      19 calls)
     regterg      :      1.58s CPU      1.60s WALL (       9 calls)

     Called by sum_band:

     Called by *egterg:
     h_psi        :      1.63s CPU      1.65s WALL (      25 calls)
     g_psi        :      0.01s CPU      0.01s WALL (      15 calls)
     rdiaghg      :      0.00s CPU      0.00s WALL (      24 calls)

     Called by h_psi:
     add_vuspsi   :      0.00s CPU      0.00s WALL (      25 calls)

     General routines
     calbec       :      0.39s CPU      0.39s WALL (      30 calls)
     fft          :      1.85s CPU      1.92s WALL (     117 calls)
     fftw         :      1.27s CPU      1.29s WALL (     122 calls)

     Parallel routines
     fft_scatter  :      1.30s CPU      1.36s WALL (     239 calls)

     PWSCF        :     8.95s CPU         9.16s WALL


   This run was terminated on:  19:35:25  22Sep2019            

=------------------------------------------------------------------------------=
   JOB DONE.
=------------------------------------------------------------------------------=
