   6   6   0   0
  0.5000000E+03  0.3000000E-08  0.1000000E-08  0.1000000E-08  0.5000000E-15
  1.000000000000000E-004
  CAR 
 unknown system                          
      1.68263415    -26.17423024  301     -6.56996192      1.00000000
    -26.174  0.0000E+00  0.0000E+00
    -26.081  0.0000E+00  0.0000E+00
    -25.989  0.0000E+00  0.0000E+00
    -25.896  0.0000E+00  0.0000E+00
    -25.803  0.0000E+00  0.0000E+00
    -25.710  0.0000E+00  0.0000E+00
    -25.617  0.0000E+00  0.0000E+00
    -25.524  0.0000E+00  0.0000E+00
    -25.431  0.0000E+00  0.0000E+00
    -25.339  0.0000E+00  0.0000E+00
    -25.246  0.0000E+00  0.0000E+00
    -25.153  0.4726E-10  0.4389E-11
    -25.060  0.1859E-03  0.1726E-04
    -24.967  0.1019E+01  0.9466E-01
    -24.874  0.1686E+02  0.1660E+01
    -24.781  0.3653E+01  0.2000E+01
    -24.689  0.3693E-02  0.2000E+01
    -24.596  0.2736E+00  0.2025E+01
    -24.503  0.1377E+02  0.3304E+01
    -24.410  0.7465E+01  0.3997E+01
    -24.317  0.2744E-01  0.4000E+01
    -24.224  0.1790E-06  0.4000E+01
    -24.131  0.0000E+00  0.4000E+01
    -24.039  0.0000E+00  0.4000E+01
    -23.946  0.0000E+00  0.4000E+01
    -23.853  0.0000E+00  0.4000E+01
    -23.760  0.0000E+00  0.4000E+01
    -23.667  0.0000E+00  0.4000E+01
    -23.574  0.0000E+00  0.4000E+01
    -23.481  0.0000E+00  0.4000E+01
    -23.389  0.0000E+00  0.4000E+01
    -23.296  0.0000E+00  0.4000E+01
    -23.203  0.0000E+00  0.4000E+01
    -23.110  0.0000E+00  0.4000E+01
    -23.017  0.0000E+00  0.4000E+01
    -22.924  0.0000E+00  0.4000E+01
    -22.831  0.0000E+00  0.4000E+01
    -22.739  0.0000E+00  0.4000E+01
    -22.646  0.0000E+00  0.4000E+01
    -22.553  0.0000E+00  0.4000E+01
    -22.460  0.0000E+00  0.4000E+01
    -22.367  0.0000E+00  0.4000E+01
    -22.274  0.0000E+00  0.4000E+01
    -22.181  0.0000E+00  0.4000E+01
    -22.089  0.0000E+00  0.4000E+01
    -21.996  0.0000E+00  0.4000E+01
    -21.903  0.0000E+00  0.4000E+01
    -21.810  0.0000E+00  0.4000E+01
    -21.717  0.0000E+00  0.4000E+01
    -21.624  0.0000E+00  0.4000E+01
    -21.531  0.0000E+00  0.4000E+01
    -21.439  0.0000E+00  0.4000E+01
    -21.346  0.0000E+00  0.4000E+01
    -21.253  0.0000E+00  0.4000E+01
    -21.160  0.0000E+00  0.4000E+01
    -21.067  0.0000E+00  0.4000E+01
    -20.974  0.0000E+00  0.4000E+01
    -20.881  0.0000E+00  0.4000E+01
    -20.789  0.0000E+00  0.4000E+01
    -20.696  0.0000E+00  0.4000E+01
    -20.603  0.0000E+00  0.4000E+01
    -20.510  0.0000E+00  0.4000E+01
    -20.417  0.0000E+00  0.4000E+01
    -20.324  0.0000E+00  0.4000E+01
    -20.231  0.0000E+00  0.4000E+01
    -20.139  0.0000E+00  0.4000E+01
    -20.046  0.0000E+00  0.4000E+01
    -19.953  0.0000E+00  0.4000E+01
    -19.860  0.0000E+00  0.4000E+01
    -19.767  0.0000E+00  0.4000E+01
    -19.674  0.0000E+00  0.4000E+01
    -19.581  0.0000E+00  0.4000E+01
    -19.489  0.0000E+00  0.4000E+01
    -19.396  0.0000E+00  0.4000E+01
    -19.303  0.0000E+00  0.4000E+01
    -19.210  0.0000E+00  0.4000E+01
    -19.117  0.0000E+00  0.4000E+01
    -19.024  0.0000E+00  0.4000E+01
    -18.931  0.0000E+00  0.4000E+01
    -18.839  0.0000E+00  0.4000E+01
    -18.746  0.0000E+00  0.4000E+01
    -18.653  0.0000E+00  0.4000E+01
    -18.560  0.0000E+00  0.4000E+01
    -18.467  0.0000E+00  0.4000E+01
    -18.374  0.0000E+00  0.4000E+01
    -18.281  0.0000E+00  0.4000E+01
    -18.189  0.0000E+00  0.4000E+01
    -18.096  0.0000E+00  0.4000E+01
    -18.003  0.0000E+00  0.4000E+01
    -17.910  0.0000E+00  0.4000E+01
    -17.817  0.0000E+00  0.4000E+01
    -17.724  0.0000E+00  0.4000E+01
    -17.631  0.0000E+00  0.4000E+01
    -17.539  0.0000E+00  0.4000E+01
    -17.446  0.0000E+00  0.4000E+01
    -17.353  0.0000E+00  0.4000E+01
    -17.260  0.0000E+00  0.4000E+01
    -17.167  0.0000E+00  0.4000E+01
    -17.074  0.0000E+00  0.4000E+01
    -16.981  0.0000E+00  0.4000E+01
    -16.889  0.0000E+00  0.4000E+01
    -16.796  0.0000E+00  0.4000E+01
    -16.703  0.0000E+00  0.4000E+01
    -16.610  0.0000E+00  0.4000E+01
    -16.517  0.0000E+00  0.4000E+01
    -16.424  0.0000E+00  0.4000E+01
    -16.331  0.0000E+00  0.4000E+01
    -16.239  0.0000E+00  0.4000E+01
    -16.146  0.0000E+00  0.4000E+01
    -16.053  0.0000E+00  0.4000E+01
    -15.960  0.0000E+00  0.4000E+01
    -15.867  0.0000E+00  0.4000E+01
    -15.774  0.0000E+00  0.4000E+01
    -15.681  0.0000E+00  0.4000E+01
    -15.589  0.0000E+00  0.4000E+01
    -15.496  0.0000E+00  0.4000E+01
    -15.403  0.0000E+00  0.4000E+01
    -15.310  0.0000E+00  0.4000E+01
    -15.217  0.0000E+00  0.4000E+01
    -15.124  0.0000E+00  0.4000E+01
    -15.031  0.0000E+00  0.4000E+01
    -14.939  0.0000E+00  0.4000E+01
    -14.846  0.0000E+00  0.4000E+01
    -14.753  0.0000E+00  0.4000E+01
    -14.660  0.0000E+00  0.4000E+01
    -14.567  0.0000E+00  0.4000E+01
    -14.474  0.0000E+00  0.4000E+01
    -14.381  0.0000E+00  0.4000E+01
    -14.289  0.0000E+00  0.4000E+01
    -14.196  0.0000E+00  0.4000E+01
    -14.103  0.0000E+00  0.4000E+01
    -14.010  0.0000E+00  0.4000E+01
    -13.917  0.0000E+00  0.4000E+01
    -13.824  0.0000E+00  0.4000E+01
    -13.731  0.0000E+00  0.4000E+01
    -13.639  0.0000E+00  0.4000E+01
    -13.546  0.0000E+00  0.4000E+01
    -13.453  0.0000E+00  0.4000E+01
    -13.360  0.0000E+00  0.4000E+01
    -13.267  0.0000E+00  0.4000E+01
    -13.174  0.0000E+00  0.4000E+01
    -13.082  0.0000E+00  0.4000E+01
    -12.989  0.9804E-13  0.4000E+01
    -12.896  0.3204E-05  0.4000E+01
    -12.803  0.1343E+00  0.4012E+01
    -12.710  0.1173E+02  0.5102E+01
    -12.617  0.9612E+01  0.5994E+01
    -12.524  0.6338E-01  0.6000E+01
    -12.432  0.1544E-02  0.6000E+01
    -12.339  0.2579E+01  0.6240E+01
    -12.246  0.1738E+02  0.7853E+01
    -12.153  0.1582E+01  0.8000E+01
    -12.060  0.4918E-03  0.8000E+01
    -11.967  0.2197E-09  0.8000E+01
    -11.874  0.0000E+00  0.8000E+01
    -11.782  0.0000E+00  0.8000E+01
    -11.689  0.0000E+00  0.8000E+01
    -11.596  0.0000E+00  0.8000E+01
    -11.503  0.0000E+00  0.8000E+01
    -11.410  0.0000E+00  0.8000E+01
    -11.317  0.0000E+00  0.8000E+01
    -11.224  0.0000E+00  0.8000E+01
    -11.132  0.0000E+00  0.8000E+01
    -11.039  0.0000E+00  0.8000E+01
    -10.946  0.0000E+00  0.8000E+01
    -10.853  0.0000E+00  0.8000E+01
    -10.760  0.0000E+00  0.8000E+01
    -10.667  0.0000E+00  0.8000E+01
    -10.574  0.0000E+00  0.8000E+01
    -10.482  0.0000E+00  0.8000E+01
    -10.389  0.0000E+00  0.8000E+01
    -10.296  0.0000E+00  0.8000E+01
    -10.203  0.0000E+00  0.8000E+01
    -10.110  0.0000E+00  0.8000E+01
    -10.017  0.0000E+00  0.8000E+01
     -9.924  0.0000E+00  0.8000E+01
     -9.832  0.0000E+00  0.8000E+01
     -9.739  0.4178E-11  0.8000E+01
     -9.646  0.3875E-04  0.8000E+01
     -9.553  0.4819E+00  0.8045E+01
     -9.460  0.1529E+02  0.9464E+01
     -9.367  0.5756E+01  0.9999E+01
     -9.274  0.1261E-01  0.1000E+02
     -9.182  0.1861E-01  0.1000E+02
     -9.089  0.6574E+01  0.1061E+02
     -8.996  0.1458E+02  0.1197E+02
     -8.903  0.3668E+00  0.1200E+02
     -8.810  0.2238E-04  0.1200E+02
     -8.717  0.1808E-11  0.1200E+02
     -8.624  0.0000E+00  0.1200E+02
     -8.532  0.0000E+00  0.1200E+02
     -8.439  0.0000E+00  0.1200E+02
     -8.346  0.0000E+00  0.1200E+02
     -8.253  0.0000E+00  0.1200E+02
     -8.160  0.0000E+00  0.1200E+02
     -8.067  0.0000E+00  0.1200E+02
     -7.974  0.0000E+00  0.1200E+02
     -7.882  0.0000E+00  0.1200E+02
     -7.789  0.0000E+00  0.1200E+02
     -7.696  0.0000E+00  0.1200E+02
     -7.603  0.0000E+00  0.1200E+02
     -7.510  0.7506E-09  0.1200E+02
     -7.417  0.1058E-02  0.1200E+02
     -7.324  0.2202E+01  0.1220E+02
     -7.232  0.1746E+02  0.1383E+02
     -7.139  0.1879E+01  0.1400E+02
     -7.046  0.7301E-03  0.1400E+02
     -6.953  0.6354E-01  0.1401E+02
     -6.860  0.9618E+01  0.1490E+02
     -6.767  0.1172E+02  0.1599E+02
     -6.674  0.1339E+00  0.1600E+02
     -6.582  0.3190E-05  0.1600E+02
     -6.489  0.9565E-13  0.1600E+02
     -6.396  0.0000E+00  0.1600E+02
     -6.303  0.0000E+00  0.1600E+02
     -6.210  0.0000E+00  0.1600E+02
     -6.117  0.0000E+00  0.1600E+02
     -6.024  0.0000E+00  0.1600E+02
     -5.932  0.0000E+00  0.1600E+02
     -5.839  0.0000E+00  0.1600E+02
     -5.746  0.0000E+00  0.1600E+02
     -5.653  0.0000E+00  0.1600E+02
     -5.560  0.0000E+00  0.1600E+02
     -5.467  0.0000E+00  0.1600E+02
     -5.374  0.0000E+00  0.1600E+02
     -5.282  0.0000E+00  0.1600E+02
     -5.189  0.0000E+00  0.1600E+02
     -5.096  0.0000E+00  0.1600E+02
     -5.003  0.0000E+00  0.1600E+02
     -4.910  0.0000E+00  0.1600E+02
     -4.817  0.0000E+00  0.1600E+02
     -4.724  0.0000E+00  0.1600E+02
     -4.632  0.0000E+00  0.1600E+02
     -4.539  0.0000E+00  0.1600E+02
     -4.446  0.0000E+00  0.1600E+02
     -4.353  0.0000E+00  0.1600E+02
     -4.260  0.0000E+00  0.1600E+02
     -4.167  0.0000E+00  0.1600E+02
     -4.074  0.0000E+00  0.1600E+02
     -3.982  0.0000E+00  0.1600E+02
     -3.889  0.0000E+00  0.1600E+02
     -3.796  0.0000E+00  0.1600E+02
     -3.703  0.0000E+00  0.1600E+02
     -3.610  0.0000E+00  0.1600E+02
     -3.517  0.0000E+00  0.1600E+02
     -3.424  0.0000E+00  0.1600E+02
     -3.332  0.0000E+00  0.1600E+02
     -3.239  0.0000E+00  0.1600E+02
     -3.146  0.0000E+00  0.1600E+02
     -3.053  0.0000E+00  0.1600E+02
     -2.960  0.0000E+00  0.1600E+02
     -2.867  0.0000E+00  0.1600E+02
     -2.774  0.0000E+00  0.1600E+02
     -2.682  0.0000E+00  0.1600E+02
     -2.589  0.0000E+00  0.1600E+02
     -2.496  0.0000E+00  0.1600E+02
     -2.403  0.0000E+00  0.1600E+02
     -2.310  0.0000E+00  0.1600E+02
     -2.217  0.0000E+00  0.1600E+02
     -2.124  0.0000E+00  0.1600E+02
     -2.032  0.0000E+00  0.1600E+02
     -1.939  0.0000E+00  0.1600E+02
     -1.846  0.0000E+00  0.1600E+02
     -1.753  0.0000E+00  0.1600E+02
     -1.660  0.0000E+00  0.1600E+02
     -1.567  0.6945E-08  0.1600E+02
     -1.474  0.4107E-02  0.1600E+02
     -1.382  0.3811E+01  0.1635E+02
     -1.289  0.1676E+02  0.1791E+02
     -1.196  0.9596E+00  0.1800E+02
     -1.103  0.1632E-03  0.1800E+02
     -1.010  0.7218E-09  0.1800E+02
     -0.917  0.9980E-03  0.1800E+02
     -0.824  0.2149E+01  0.1820E+02
     -0.732  0.1746E+02  0.1982E+02
     -0.639  0.1927E+01  0.2000E+02
     -0.546  0.7737E-03  0.2000E+02
     -0.453  0.4535E-09  0.2000E+02
     -0.360  0.0000E+00  0.2000E+02
     -0.267  0.0000E+00  0.2000E+02
     -0.174  0.0000E+00  0.2000E+02
     -0.082  0.3257E-08  0.2000E+02
      0.011  0.2600E-02  0.2000E+02
      0.104  0.3186E+01  0.2030E+02
      0.197  0.1712E+02  0.2189E+02
      0.290  0.1245E+01  0.2200E+02
      0.383  0.5910E+01  0.2255E+02
      0.476  0.1499E+02  0.2394E+02
      0.568  0.6182E+00  0.2400E+02
      0.661  0.9694E-04  0.2400E+02
      0.754  0.2382E-10  0.2400E+02
      0.847  0.0000E+00  0.2400E+02
      0.940  0.0000E+00  0.2400E+02
      1.033  0.0000E+00  0.2400E+02
      1.125  0.0000E+00  0.2400E+02
      1.218  0.0000E+00  0.2400E+02
      1.311  0.0000E+00  0.2400E+02
      1.404  0.0000E+00  0.2400E+02
      1.497  0.0000E+00  0.2400E+02
      1.590  0.0000E+00  0.2400E+02
      1.683  0.0000E+00  0.2400E+02
