    6    6    1    1
  0.5000000E+03  0.3000000E-08  0.1000000E-08  0.1000000E-08  0.5000000E-15
  1.000000000000000E-004
  CAR 
 unknown system                          
     16      2     12
 
  0.0000000E+00  0.2500000E+00  0.2500000E+00  0.5000000E+00
    1      -24.908009   1.000000
    2      -24.516648   1.000000
    3      -12.714594   1.000000
    4      -12.297077   1.000000
    5       -9.482011   1.000000
    6       -9.070760   1.000000
    7       -7.279568   1.000000
    8       -6.855651   1.000000
    9       -1.348872   0.000000
   10       -0.779138   0.000000
   11        0.140877   0.000000
   12        0.416413   0.000000
 
  0.0000000E+00 -0.2500000E+00  0.2500000E+00  0.5000000E+00
    1      -24.908009   1.000000
    2      -24.516648   1.000000
    3      -12.714594   1.000000
    4      -12.297077   1.000000
    5       -9.482011   1.000000
    6       -9.070760   1.000000
    7       -7.279568   1.000000
    8       -6.855651   1.000000
    9       -1.348870   0.000000
   10       -0.779132   0.000000
   11        0.141162   0.000000
   12        0.393371   0.000000
