       N       E                     dE             d eps       ncg     rms          rms(c)
DAV:   1     0.152019685567E+03    0.15202E+03   -0.47329E+03    64   0.142E+03
DAV:   2     0.518920979995E+02   -0.10013E+03   -0.99242E+02    96   0.135E+02
DAV:   3    -0.209377913829E+02   -0.72830E+02   -0.72013E+02    80   0.137E+02
DAV:   4    -0.317047302094E+02   -0.10767E+02   -0.10754E+02    64   0.671E+01
DAV:   5    -0.319915188611E+02   -0.28679E+00   -0.28672E+00    72   0.158E+01    0.182E+01
RMM:   6    -0.286195802083E+02    0.33719E+01   -0.12437E+01    64   0.250E+01    0.179E+01
RMM:   7    -0.285700035258E+02    0.49577E-01   -0.12166E+00    76   0.534E+00    0.157E+01
RMM:   8    -0.294350312898E+02   -0.86503E+00   -0.68408E+00    64   0.221E+01    0.117E+01
RMM:   9    -0.283470451997E+02    0.10880E+01   -0.25413E+00    64   0.117E+01    0.400E+00
RMM:  10    -0.283572937130E+02   -0.10249E-01   -0.18363E-01    76   0.245E+00    0.197E+00
RMM:  11    -0.283528705827E+02    0.44231E-02   -0.14856E-02    70   0.599E-01    0.875E-01
RMM:  12    -0.283498397146E+02    0.30309E-02   -0.72284E-02    64   0.161E+00    0.600E-01
RMM:  13    -0.283517609537E+02   -0.19212E-02   -0.58873E-03    72   0.381E-01    0.648E-01
RMM:  14    -0.283578130131E+02   -0.60521E-02   -0.33664E-03    64   0.319E-01    0.648E-01
RMM:  15    -0.283596687810E+02   -0.18558E-02   -0.37554E-03    61   0.466E-01    0.224E-01
RMM:  16    -0.283602758177E+02   -0.60704E-03   -0.24498E-03    71   0.328E-01    0.536E-02
RMM:  17    -0.283628453167E+02   -0.25695E-02   -0.52229E-03    56   0.488E-01    0.342E-01
RMM:  18    -0.283631776947E+02   -0.33238E-03   -0.45898E-04    68   0.124E-01    0.312E-01
RMM:  19    -0.283628081586E+02    0.36954E-03   -0.34838E-03    62   0.390E-01    0.418E-02
RMM:  20    -0.283628211714E+02   -0.13013E-04   -0.12526E-03    76   0.198E-01    0.183E-01
RMM:  21    -0.283628464997E+02   -0.25328E-04   -0.58474E-05    70   0.482E-02    0.170E-01
RMM:  22    -0.283630766082E+02   -0.23011E-03   -0.16819E-03    56   0.268E-01    0.313E-01
RMM:  23    -0.283623969641E+02    0.67964E-03   -0.13863E-03    60   0.263E-01    0.147E-01
RMM:  24    -0.283626296975E+02   -0.23273E-03   -0.25696E-03    58   0.323E-01    0.126E-01
RMM:  25    -0.283628349695E+02   -0.20527E-03   -0.14495E-04    70   0.689E-02    0.102E-01
RMM:  26    -0.283630559406E+02   -0.22097E-03   -0.17360E-04    54   0.840E-02    0.424E-02
RMM:  27    -0.283631598239E+02   -0.10388E-03   -0.28683E-05    58   0.307E-02    0.374E-02
RMM:  28    -0.283638218221E+02   -0.66200E-03   -0.16791E-04    58   0.788E-02    0.878E-03
RMM:  29    -0.283640215910E+02   -0.19977E-03   -0.10824E-04    70   0.590E-02    0.476E-02
RMM:  30    -0.283641617719E+02   -0.14018E-03   -0.32222E-05    62   0.381E-02    0.272E-02
RMM:  31    -0.283642887635E+02   -0.12699E-03   -0.27952E-05    68   0.321E-02    0.104E-02
RMM:  32    -0.283643425510E+02   -0.53788E-04   -0.27213E-06    68   0.855E-03    0.276E-03
RMM:  33    -0.283643632837E+02   -0.20733E-04   -0.12726E-06    70   0.631E-03    0.651E-03
RMM:  34    -0.283643765461E+02   -0.13262E-04   -0.99881E-07    58   0.674E-03    0.123E-03
RMM:  35    -0.283643836118E+02   -0.70657E-05   -0.14718E-07    56   0.206E-03    0.540E-04
RMM:  36    -0.283643876018E+02   -0.39900E-05   -0.60782E-08    54   0.140E-03    0.895E-04
RMM:  37    -0.283643895278E+02   -0.19260E-05   -0.11220E-07    58   0.196E-03    0.681E-04
RMM:  38    -0.283643900259E+02   -0.49813E-06   -0.10028E-08    46   0.673E-04    0.379E-04
RMM:  39    -0.283643904952E+02   -0.46925E-06   -0.31157E-08    48   0.103E-03    0.371E-04
RMM:  40    -0.283643906798E+02   -0.18463E-06   -0.56579E-09    40   0.472E-04    0.250E-04
RMM:  41    -0.283643907332E+02   -0.53421E-07   -0.52860E-09    46   0.468E-04    0.797E-05
RMM:  42    -0.283643908038E+02   -0.70548E-07   -0.28413E-09    38   0.307E-04    0.584E-05
RMM:  43    -0.283643909002E+02   -0.96456E-07   -0.43405E-09    40   0.442E-04    0.250E-04
RMM:  44    -0.283643909320E+02   -0.31777E-07   -0.13467E-09    37   0.235E-04    0.107E-04
RMM:  45    -0.283643909630E+02   -0.30959E-07   -0.96616E-10    35   0.204E-04    0.830E-05
RMM:  46    -0.283643909802E+02   -0.17190E-07   -0.35044E-09    44   0.415E-04    0.168E-04
RMM:  47    -0.283643909959E+02   -0.15728E-07   -0.77653E-10    40   0.195E-04    0.116E-04
RMM:  48    -0.283643910722E+02   -0.76342E-07   -0.12334E-09    36   0.236E-04    0.145E-04
RMM:  49    -0.283643911235E+02   -0.51316E-07   -0.55985E-10    32   0.166E-04    0.128E-04
RMM:  50    -0.283643911662E+02   -0.42652E-07   -0.82995E-10    37   0.219E-04    0.790E-05
RMM:  51    -0.283643911761E+02   -0.98726E-08   -0.89520E-10    43   0.217E-04
   1 F= -.28364391E+02 E0= -.28364391E+02  d E =-.187008E-15
