LAMMPS data file via write_data, version 29 Sep 2021, timestep = 100000

432 atoms
2 atom types

1.028934495388695 19.02956796267537 xlo xhi
1.028934495388695 19.02956796267537 ylo yhi
0.3429781651295891 6.3431893208914385 zlo zhi

Masses

1 15.999
2 1.00784

Atoms # atomic

4 1 3.9714398994561337 3.8801040637567508 6.287603366860221 0 0 -1
13 1 2.6049289930600352 2.539908062216135 1.7690939920589992 0 0 0
34 1 4.019919008512915 3.8581222130939556 3.4421358792541987 0 0 0
43 1 2.1043609063703084 2.455046478068218 4.678196442146064 0 0 0
47 2 2.072398908417851 2.8809827552102028 2.367272243753059 0 0 0
146 2 4.71491595733889 3.457505798999822 2.934389894092521 0 0 0
405 2 2.967165824627803 2.5209145757404667 4.034182911963253 1 1 0
44 2 3.6797445567233606 1.5493331563289803 2.4466230743703243 0 0 0
152 2 4.546926324187895 3.3601788660395027 5.610524475477392 0 0 1
60 2 2.8561874165172103 5.556182153568201 2.6726260915688664 0 0 1
159 2 2.889282420124996 3.1576296870123035 1.1196160426159336 0 0 0
6 2 1.071600452969224 4.864479606518616 0.8696425327130999 0 0 0
200 2 3.184769925550083 5.146857030968763 5.370805584434372 1 0 -1
7 1 4.113336325605164 1.0960950371658236 3.3232634129773726 0 0 0
39 2 19.020159907041684 1.6193505956555803 4.02458282343877 -1 0 1
102 2 5.613028971829921 2.2499235264972723 1.0586092903550282 1 0 -1
22 1 2.406078739962029 5.497294050253267 4.93757887367301 0 0 0
383 2 3.8331527522652524 1.70469165417135 6.000971699632771 1 1 0
37 1 5.795959934918685 2.582769856318178 1.8864100837916187 0 0 0
19 1 5.87218299519157 2.6682735727838462 4.6984527397180145 0 0 0
164 2 4.615493751445291 4.341065535887756 3.953796124806855 0 0 -1
10 1 1.3674907892219283 4.112397197609751 3.2394067522160155 0 0 0
194 2 1.4763260520376762 4.800447095654032 3.867345713761263 0 0 -1
62 2 1.2296727263547456 1.5042029072143532 0.9393744979923923 0 0 1
40 1 2.644463300762263 5.671071799749186 1.7309977098251423 0 0 0
294 2 4.494369879116095 4.418546392944082 1.0295316225413875 0 1 -1
240 2 5.4373529729876715 2.076405671470333 4.0948614517520365 0 1 1
350 2 2.358328379879584 3.1699680856886054 5.2905071146195795 0 1 0
48 2 1.6811891243532233 6.147483007701811 1.6976087132358775 0 0 1
1 1 18.94249454943015 18.920332496307154 6.236202968094936 -1 -1 -1
402 2 6.301542732236389 3.471202892646562 4.064039867151303 1 1 0
20 2 5.956560173275005 5.08709469064231 2.637956732288191 0 0 1
38 2 7.939479359323461 3.114045620560559 5.293360987228585 0 0 0
365 2 6.6175290670180855 4.266316633308373 5.742489473047865 0 1 -1
21 2 9.46164633069437 1.3038263430958312 5.476043393259312 0 0 0
58 1 7.086871519589004 4.017165513455997 3.2958622097780244 0 0 0
76 1 7.140836915982883 3.8644572932089303 0.4460843065903919 0 0 0
61 1 8.513174085328165 2.3826337808969216 1.8703538094308334 0 0 0
91 1 8.425813179459023 2.4930240951450884 4.692320982217749 0 0 0
72 2 7.568967553379753 3.150219694675831 2.8489270398384376 0 0 1
108 2 6.239606986573236 3.273519400054743 1.5490678870828711 0 0 0
17 2 8.848935710290924 3.1709038091002073 4.072189394459004 0 0 1
80 2 9.408810588026762 1.8474774619705019 2.487797178023325 0 0 -1
75 2 8.011488613690005 2.0103074959277505 1.2300371988281524 0 0 1
303 2 7.528160729765025 4.678168581740559 0.9172601177821563 0 1 0
42 2 9.299330615539468 3.39140266128509 0.6939691368487281 0 0 0
53 2 9.208595703434415 4.901247803742098 5.083876981043463 0 0 -1
55 1 10.005290753203676 1.3259474231105721 3.3873294218559034 0 0 0
49 1 7.038332718930257 18.935035570363354 6.1957982916098935 0 -1 -1
189 2 7.525311264948155 4.861252570264871 3.617643140610382 0 0 0
362 2 9.113088448607902 4.779021676978724 2.521763529827003 0 0 -1
296 2 6.597383335461337 1.3289112048396048 5.355912415096444 0 1 -2
82 1 10.087973681589599 3.83248632075741 3.1891718530292765 0 0 0
79 1 7.293989193303148 18.804764686256647 3.2752021847975326 0 -1 0
73 1 10.038640262610803 1.048034737997051 6.0912960110281045 0 0 -1
46 1 5.241336659108081 5.788082751704187 4.890639340569551 0 0 0
88 1 8.638070284082366 5.457221181516093 1.8720175413873774 0 0 0
374 2 6.858292722341311 1.242275489460961 2.588379603504149 0 1 -1
129 2 12.232944332715936 1.9560423635471493 5.371111331314859 0 0 0
52 1 9.909987897440596 4.043871067164096 6.239150973820163 0 0 -1
59 2 10.266844069818008 3.425150067773908 5.563469582177808 0 0 -1
36 2 11.076870874246032 1.844588464219673 1.4078405136735477 0 0 0
372 2 13.40047298442138 18.543774029680122 5.944816482172454 0 0 0
67 1 11.658700862387063 2.6463626143972334 4.794915427106423 0 0 0
85 1 11.584699955026535 2.6574537678994616 1.72568694897342 0 0 0
106 1 13.038079818679911 4.002449083028312 3.1864305921057636 0 0 0
124 1 13.063459772098323 4.316616235895783 0.38410989451676275 0 0 0
107 2 10.893886009835988 3.5153213885337227 2.6494379791362137 0 0 1
173 2 13.515430497275666 3.5104348608717313 6.103571186850367 -1 0 -2
171 2 12.085485366916512 2.8559184307266623 3.9333318416168814 0 0 0
117 2 11.869777235124259 4.728714349083317 2.072438924185532 0 0 0
272 2 13.705385908783144 4.8161994924407985 0.9599668794488979 0 0 1
371 2 11.763371337317086 3.175672515262679 0.9516754000904325 0 1 0
192 2 10.775113285751667 1.8729926214698516 3.88966516885343 0 1 1
99 2 14.264198929003646 1.7368922472691535 4.091147763273227 0 0 0
30 2 13.693921362342474 3.553155202819524 2.643631396237085 -1 0 -2
119 2 13.445993342763193 4.319393870759066 4.03917599412555 0 0 0
320 2 10.791071668775459 5.19024510698447 1.1531204884890647 -1 1 0
231 2 12.235425607279861 4.695328642711303 5.392851786570434 0 0 0
269 2 13.769043325568436 2.1665096895391134 1.4270079631031218 0 0 0
139 1 14.38631080098745 2.3727401058704887 4.821516997087668 0 0 0
118 1 14.549520972897907 5.350400835697485 4.753147627942678 0 0 0
136 1 14.651567358741554 5.485173673976519 1.907158514826317 0 0 0
428 2 1.1180554772527447 3.4273589537956077 4.014190147466056 1 1 0
109 1 14.59580093485848 2.7517233305796385 1.65155700627344 0 0 0
147 2 16.86465138355942 3.193443497460934 5.0481257338024115 -1 0 0
28 1 18.98677080299477 3.9967597153858305 0.40349603828249864 -1 0 0
120 2 18.180849941439334 3.4259639071370387 0.7080138870661634 0 0 1
227 2 16.053175453778458 4.463708882133201 5.601239109878792 0 0 -1
176 2 15.290767094405423 3.351644518818266 3.946103154614736 0 0 -1
110 2 18.28604562162812 4.791574483153143 5.239667715620406 0 0 -1
128 2 15.50827822812775 3.69257439299424 0.8551629570408879 0 0 1
306 2 15.074611320545733 4.7893689360975245 2.4442808556039406 -1 1 1
57 2 18.090014927527044 2.030265552169177 5.4046790617657035 0 0 -1
100 1 16.278495108701456 4.201850503808986 0.46623423414744547 0 0 0
115 1 17.53093822347372 2.440115914483447 4.705119660523589 0 0 0
130 1 15.884613911744989 3.903713504769161 3.2932694149963035 0 0 0
133 1 17.627871510720922 2.4928381744381194 1.5676900113723455 0 0 0
111 2 15.019549708389892 1.7130600981222333 5.392386704475429 0 0 0
29 2 18.011640035078216 4.8603147960538235 2.593272433052942 -1 0 -1
142 1 17.855743125043468 5.658824567758082 4.901262495414603 0 0 0
90 2 15.214964274730917 2.099055222320297 1.9707290380630256 0 0 0
416 2 16.90457013676521 1.8590447946206194 1.300639146390215 0 1 0
219 2 17.38505854490073 2.979039895923046 2.541612904589424 0 0 0
390 2 17.084433257096087 5.111427099867098 1.4888420007715035 0 1 1
300 2 15.939594743073679 4.791890536061141 3.735954277050094 -1 1 0
366 2 16.394628651936223 1.7828547162047519 3.8300179363321476 0 1 -1
103 1 15.945537467378129 1.2975463719354818 3.0876144803407253 0 0 0
112 1 17.724770404315244 5.613406952476496 2.0004900901691274 0 0 0
31 1 19.023577998295117 1.1365217939459429 3.129623117889647 -1 0 0
84 2 18.254644893511916 1.8592495820656791 2.6342572844770253 -1 0 -1
32 2 15.718725883600895 18.36587159976701 0.9483690597592187 -1 -1 0
315 2 5.047445697700205 6.090966149612959 2.6211159084034077 0 1 -1
207 2 4.29237233123244 7.70210191138073 4.136943223462907 0 0 0
158 2 2.9071246854217523 8.185380780124204 2.771953868204553 0 0 1
151 1 3.8737617696414812 7.155741681994732 3.4241197955276914 0 0 0
169 1 3.725649477357176 7.265345464269365 0.449509602203667 0 0 0
157 1 2.3504553956791896 8.768835733986323 2.0539196254269436 0 0 0
187 1 2.3100132625367396 8.448546006710544 4.759099471690957 0 0 0
167 2 4.606862278481399 6.349394389087916 5.357109734108523 0 0 -1
56 2 3.9133381492621884 7.935963022664215 1.1004403138401588 0 -1 1
218 2 1.7496098419249837 9.701490325325981 2.86748029976286 0 0 -1
356 2 2.5273791957363487 9.368984833522937 4.800401997180204 0 0 0
188 2 3.0823152061273476 6.7419444281002265 3.690623431643994 0 0 0
149 2 1.9955950674114313 6.071011495739467 5.674835717824829 0 0 -1
132 2 1.1002972321122786 9.434721763568133 6.05327876094684 1 0 -2
203 2 4.657105631966301 9.269502621694977 4.32620335167576 0 0 -1
41 2 3.2762333043921625 6.672215803168807 1.0487358046351898 0 0 0
16 1 5.385111907978684 5.40111316120603 1.9515675995080384 0 0 0
321 2 3.403818864257804 9.452283567098121 1.122407006803737 0 0 1
140 2 5.631336251280765 7.3182567752378835 1.9219256479486282 0 0 1
45 2 1.6620259497909327 8.240238577706606 1.7816939332166442 0 -1 2
145 1 18.95565866682317 7.456636402198576 0.4952095714554581 -1 0 0
175 1 18.75848587442224 7.28212406971698 3.174810518374975 -1 0 0
297 2 4.7159456695751505 8.491377918449365 2.2957871005821078 0 0 -1
163 1 5.281865101868809 8.525367722753373 4.515062805555342 0 0 0
181 1 5.596008370024253 8.224912730689539 2.07265655421467 0 0 0
113 2 2.5042868082987138 7.870150989046364 5.641040629543211 1 0 -1
332 2 5.932535273133934 6.421238430111217 4.746821694811761 0 1 0
18 2 6.868129194288413 7.539278921239241 3.145252513139628 0 0 0
70 1 8.576571177830086 5.462133185728682 4.669771551773543 0 0 0
195 2 9.244450461595138 6.035674924110237 1.2460290188653111 0 0 0
351 2 6.083979818827801 6.522772912846241 0.34582549918534927 0 0 0
15 2 7.794290818165626 9.34389985392165 2.6075169469885915 0 0 0
182 2 7.811461170007514 7.849529192973655 4.38267865739428 0 0 0
230 2 8.622590961557169 7.648801685346238 2.40642145418079 0 0 1
23 2 7.639868143088379 6.4467370358805764 2.6713329513019968 0 0 2
336 2 5.518414450547135 8.250098727920857 5.459849703945769 0 1 0
386 2 8.12819859224985 6.030206525798299 5.303596730975967 0 0 0
193 1 6.779182168825469 7.067627490934418 6.080238226239789 0 0 -1
223 1 7.2012862194702425 6.732724016423451 3.392373194484608 0 0 0
205 1 8.251761310969025 8.289891158261575 1.7902601657356474 0 0 0
235 1 8.61145913101802 8.468530732842332 4.827846240016342 0 0 0
225 2 7.92124797018617 8.703279235853618 5.419490120091762 0 0 -1
348 2 9.25596893278436 9.377712814801262 3.649455470979506 0 0 -1
239 2 6.946883730488816 7.559397241800374 0.8534250873812038 0 0 0
114 2 9.979722533540826 7.543332724188552 5.524085574686353 0 0 -2
378 2 8.763831871217052 8.846350827244901 1.2676229398264198 0 0 0
224 2 9.531906156481034 6.145634662085427 3.717367311358787 0 0 0
206 2 6.722555087617875 9.610776165099288 3.6462319001326087 0 0 -1
199 1 10.218072411999328 6.742987511436037 3.344056427351886 0 0 0
217 1 10.12236346165498 6.810680034503267 6.162749742222495 0 0 -1
64 1 11.500258222297472 5.472501297456908 1.783552713583762 0 0 0
255 2 10.519882271802775 4.486831139544793 3.7015179438206545 0 0 0
94 1 11.720453874584566 5.180657011883098 4.653775556426696 0 0 0
95 2 10.616587943627392 7.223702985348482 0.8672274279888835 0 0 1
180 2 11.01476495634204 8.283296282357254 4.0469204652942645 0 0 0
150 2 10.73775137023359 6.36100373258806 2.481226009792898 0 0 0
215 2 12.487178331413956 6.059791973259935 3.72219926414417 0 0 1
177 2 14.110829423234234 6.044663305923723 2.588835291423457 -1 0 0
261 2 12.465401266119722 6.497089985995541 0.7768497545729096 0 0 1
96 2 12.858739002980105 7.799646749216571 3.6122841480071015 0 0 0
93 2 10.996692112891829 5.742147186503771 5.148833206801912 0 0 0
363 2 12.616286422535964 7.590777350518576 5.6654814261164805 0 0 -1
241 1 13.137751119019546 6.907751493122575 6.198867686494706 0 0 -1
271 1 13.195529768285986 6.890240188678471 3.4029357285155184 0 0 0
211 1 11.42639404815537 8.66037250161843 4.807280365429101 0 0 0
229 1 11.716105278378304 8.2369353498424 1.8924537823350107 0 0 0
138 2 10.184516999114793 9.108741200837725 5.7913032925929375 0 0 0
273 2 11.928457764964607 8.579851817941485 1.0442468795741016 0 0 -1
197 2 10.831901284613062 8.727922611195318 2.0264243299243487 0 0 0
237 2 13.714130147079473 8.14705573024866 1.5906577681073226 0 0 1
243 2 14.969220868615029 7.713567905960581 1.2144073376616482 0 0 1
216 2 12.016068990893864 9.4553514503344 4.481900269615997 0 0 0
78 2 14.725455740140026 8.135374280244566 5.028286886836003 0 0 -1
250 1 13.00549027427977 10.17236132589369 3.2245343216516136 0 0 0
291 2 14.002200302371559 5.665708272300085 5.441513795098222 0 0 -1
168 2 16.33363737109633 7.621111736615131 1.1025177102340504 -1 0 1
144 2 1.2221238142975714 7.961874739226417 3.7524245533496026 1 0 1
11 2 18.596513046569555 7.823159429673461 5.691938785238866 -1 0 -1
253 1 14.65938333179019 8.596857624488305 1.7444042219813831 0 0 0
251 2 17.317095521884788 6.054699533978596 5.572279480412952 0 0 -1
65 2 15.1415054836645 6.052373729884718 4.365744623420898 0 0 -1
24 2 18.390995093137583 6.7466819650732655 3.992916885732772 -1 0 0
344 2 15.354306058551092 9.550691795837464 0.6978093164023274 0 0 1
283 1 14.30673486641226 8.961741995215643 4.78790986135035 0 0 0
51 2 15.696628576221478 7.237075703178723 2.9518295189681485 -1 0 0
141 2 16.788564637351573 9.139439599517523 2.2066531189820413 0 0 0
116 2 16.956456028651104 6.259674128362772 2.919992312253628 0 0 1
201 2 15.473800514722004 6.223529832759671 0.8185605475529003 0 0 0
137 2 18.02389912517271 7.383678434928839 0.908060224505803 0 0 0
270 2 17.738625030258717 7.7484717420752505 2.54715616475873 0 0 -1
247 1 16.281962969175378 6.8560186524093405 3.536219030475004 0 0 0
265 1 15.933671213019572 6.974426681184687 0.3624515289142954 0 0 0
259 1 17.582609378617768 8.39283651022669 4.83712023506107 0 0 0
277 1 17.164862385225597 8.37516128763938 1.8641213708421402 0 0 0
245 2 16.70861313918852 10.315855024513693 4.1882127880203655 0 0 -1
254 2 16.84931539575735 7.743746052919424 4.42889705026756 0 0 -2
293 2 18.368952674397647 9.446597705272447 3.9151816574763725 -1 0 -1
288 2 17.206018034629132 8.925565168114474 5.578890628705576 0 0 0
236 2 13.775790324637324 9.340643785536866 5.553443549524772 0 0 0
244 1 15.90190872108575 10.140795538446422 6.249137352588146 0 0 -1
333 2 15.386367989249232 9.395930277053035 4.006838357209105 -1 0 0
274 1 16.17417023335021 9.883770732581477 3.50157359322684 0 0 0
178 1 3.7736177929298655 10.140103529702893 3.447462699686243 0 0 0
148 1 3.5475086816291594 9.989761820038245 6.171010303992386 0 0 -1
179 2 4.360002474792869 10.421713117577797 0.3598801754943172 0 0 -1
135 2 3.0468418898731007 11.11231851364699 2.6534937815562922 1 0 -2
126 2 2.828833632535818 12.627953916258107 5.4912438301259225 1 0 -1
166 1 2.518867261805153 11.972977443894226 4.852864787198607 0 0 0
184 1 2.4761210623726426 11.766483031250296 2.1121704658656553 0 0 0
295 1 4.2749874068340965 13.388375793438438 3.065086663398219 0 0 0
313 1 3.9070421193014537 13.506953784294444 6.324441777048834 0 0 -1
290 2 4.409395596113333 10.711184774216617 4.1874806552806465 0 0 -1
381 2 1.3165605789713313 12.600957639469218 3.04403682311884 0 0 1
302 2 2.8763253704574314 11.098278643503493 5.299827307178877 0 0 -1
204 2 3.430237159587926 14.382730052146588 5.9354827715474325 0 0 0
357 2 4.932720571285291 13.738089244132516 3.8621750262801497 1 0 1
27 2 2.8684432098090875 14.025024384606727 2.465582533934857 0 -1 0
423 2 3.021546934039942 12.288720348284771 1.5067223070454543 1 0 1
89 2 4.69145863794056 13.911120600787285 0.8512881011804501 0 0 -1
33 2 1.072336574425833 13.207537192687328 5.889645738676501 0 -1 0
191 2 3.9974991657894057 12.474131527129114 3.261186038992929 0 0 0
77 2 1.8088924254499377 10.510506082374887 0.8579600736786903 0 0 0
384 2 2.5975418660359564 13.984435368350654 4.347185856734313 1 0 0
301 1 2.23371237613439 14.661970550343732 1.9984248848143316 0 0 0
331 1 2.2525605249896414 14.643717525524366 4.834190306842574 0 0 0
198 2 4.931289384153789 12.048193541080531 5.5538223928537125 0 0 0
68 2 4.656837632122415 10.500254510889686 2.181931438971662 0 -1 1
325 1 5.850923111954381 14.71775304545341 1.6184131754183055 0 0 0
190 1 5.289748429576309 11.467746208081987 4.790721775113585 0 0 0
172 1 18.96002437673571 10.19760647892841 0.499183954817968 -1 0 0
14 2 1.4556146908059566 13.96329296489894 1.2239309530358708 0 -1 1
339 2 6.153564120236588 10.085660660286335 1.071151530881247 0 0 -1
202 1 7.394240520782372 10.081379766711652 3.19961698110179 0 0 0
220 1 6.763197960071664 10.030040044808642 6.310044982299484 0 0 -1
160 1 5.243040062700593 11.176109845544445 1.7377242145745873 0 0 0
282 2 5.985053690083933 11.472110672526686 2.3514771073946323 0 0 1
212 2 7.733555793311624 10.72817410546526 1.2780526521217732 0 0 0
153 2 6.070236848529467 14.166966026429531 5.370006264749922 0 0 -1
369 2 6.056152363659506 10.470455747408977 5.643237955365235 0 0 0
170 2 7.814245215245475 11.014444553524388 4.5265468838925305 0 0 -1
329 2 9.00053960333334 11.029366032736531 2.3754539888501567 0 1 -1
165 2 7.141443103261608 12.285092362962013 0.8791359597304081 0 0 2
267 2 6.37124574943706 12.621405343580365 3.7988434291630817 1 0 0
214 1 8.52814789022161 11.530489539778157 4.996179128151812 0 0 0
232 1 8.598999977515446 11.441981066764322 1.5944149863699268 0 0 0
337 1 7.054418310004811 13.024945876574817 6.2414698404731155 0 0 -1
367 1 6.9735569364453704 13.123705557126982 3.1873206538149135 0 0 0
228 2 9.628879941186957 12.537157614277548 1.0323812208132859 0 0 0
35 2 7.519258636761839 12.624082073993222 5.458970391197601 0 -1 -1
299 2 7.38716347936272 12.23784657611949 2.774722896878325 0 0 -1
398 2 5.979253963368089 14.0864470029475 2.3191918862398646 0 0 -1
347 2 8.049352448670763 14.017497547591919 4.200893634095449 0 0 1
387 2 9.378099685558942 13.748209171042983 5.676975084754568 0 0 -1
349 1 8.514605297002436 14.595310831259873 1.654202957481592 0 0 0
69 2 9.106766516712181 12.037078264726283 4.4268562984828925 0 -1 0
210 2 9.504532075826647 10.518722410363576 6.160029019759474 0 0 -1
408 2 8.93926453422385 14.012539144330617 2.2707676568456803 0 0 1
360 2 7.766917661841466 13.81594365670064 1.265679894376818 0 0 0
226 1 9.861741359667429 9.880815652877452 3.0565243616399775 0 0 0
268 1 12.932631797109313 9.872432774761931 0.34319278238195333 0 0 0
343 1 9.962966318230775 13.125485231773778 3.1588075985537087 0 0 0
196 1 9.836949482463712 9.623564415880889 0.5264593385458307 0 0 0
341 2 11.100444080762292 10.82929674397304 1.6948553887414755 0 0 -1
361 1 9.97221396871346 13.117631613855593 6.226660453173567 0 0 -1
419 2 13.747707005458384 10.379675901384063 0.48045583681863774 0 0 1
222 2 10.498197289121906 12.409612669138747 2.7398290814696895 0 0 0
143 2 12.605072183786595 9.49238720003616 2.8851152045355524 0 0 1
353 2 13.857778409681545 9.986931351660374 3.6778130858883875 0 0 1
314 2 13.70229676833619 12.455148654127585 3.2863645178348904 0 0 -1
285 2 10.51757349659424 13.692696467051334 3.906718251102669 0 0 0
411 2 12.595606104813365 10.669689828170183 5.7815326770853375 0 0 0
208 1 11.28866820525644 11.732209969748565 1.6071191130805824 0 0 0
238 1 11.198490877455205 11.351218310756991 4.648120294723675 0 0 0
385 1 13.077351123884634 12.731111735390948 6.07132419258085 0 0 -1
415 1 12.880551731266872 12.927826687403545 3.359500436623331 0 0 0
155 2 10.181225572729849 10.626046742516213 3.6770090571468534 -1 0 0
278 2 10.637107832074784 13.888922275640471 0.986830886133292 0 0 0
275 2 12.084146309515123 12.115465499976487 1.484226362507092 0 0 2
276 2 11.95248153827266 11.77130977346203 4.171978289175954 0 0 -1
375 2 10.793098886917019 12.09409335241405 5.247581488763741 0 0 -1
87 2 12.15946971660105 13.72675210506889 5.373459052567272 0 -1 0
104 2 13.561523328310503 13.22986967746639 0.6335416126922683 0 -1 1
209 2 13.778813987497763 12.289081321198571 5.466818762300912 0 0 0
213 2 12.102466915277247 13.915093202340335 2.3268660786167215 0 0 1
185 2 13.348754686843856 13.655482623007936 3.779944246140631 -1 0 -1
373 1 11.504329874321312 14.336436890143625 1.7379177623286604 0 0 0
427 1 14.625746295076565 14.209106806513983 4.632003638674314 0 0 0
397 1 14.35541938181085 14.324062141158212 2.0145242420007463 0 0 0
289 1 18.559602106643567 13.518144165535688 0.5298176336108307 -1 0 0
262 1 14.778501899511905 11.609854401652793 4.694710812649182 0 0 0
319 1 18.62148938045032 13.296020675431063 3.357071591343441 -1 0 0
280 1 14.489379726966499 11.554642130636454 2.128500401176468 0 0 0
154 1 18.907661615151063 10.15514655709045 3.4541757924475363 -1 0 0
404 2 18.06854522453974 12.939729571076514 4.024100389680314 0 0 2
248 2 15.239030234143609 11.881198476180835 1.5453995895431465 0 0 0
264 2 16.863349736366004 10.1682182435891 0.556725230922953 0 0 1
263 2 15.382108484000689 12.232326788711587 4.104688591103672 0 0 1
71 2 18.350245510913354 10.693676937437312 2.234554825890561 -1 0 1
260 2 18.357180555126092 11.301337620956012 4.310658621078941 0 0 -1
257 2 14.984093973510019 10.963333288281442 2.843847402432059 0 0 1
393 2 18.1740784192533 11.094395303284498 5.770076579737474 0 0 -1
156 2 18.366284381282533 11.91732277030415 1.2825120182059118 -1 0 0
392 2 16.725413363543346 12.296481861662725 2.4652312133536505 0 0 0
256 1 17.77027139505209 11.380898279448497 1.7951354647101025 0 0 0
286 1 17.831557315522346 11.704792170030414 5.11425569108764 0 0 0
391 1 16.270926874874075 12.808874854268772 3.189235280807532 0 0 0
409 1 16.012571263021194 12.695431954550028 0.5096212558016369 0 0 0
345 2 15.42917612270352 11.030758285793805 5.299177342947015 0 0 0
125 2 15.268828095541734 13.257038777209846 5.983627887734604 0 0 0
326 2 17.793247931698716 14.18930446131646 2.719084621705243 -1 0 0
134 2 16.916978337210246 12.45668483090404 3.8525884823704644 0 -1 1
162 2 16.454599740381425 12.456353992346205 5.775241165882436 0 0 -1
421 1 17.451448536768616 14.934694685535503 2.1326519918186646 0 0 0
105 2 14.767679187497862 13.507438221836596 2.2339031684608033 0 -1 0
131 2 17.511889112673877 14.24108513563302 1.3619289591046657 0 -1 1
101 2 17.87209475540204 14.163533619390156 5.688334812092624 0 -1 -1
50 2 1.8657195169736052 18.939419914074655 2.501130448089654 0 -1 1
249 2 4.685200620276202 18.38200234039371 6.017187825294069 1 -1 -1
307 1 5.410222733555053 14.704552019355932 4.927182072289826 0 0 0
266 2 3.309915493929576 18.024917095106744 1.1326189568696037 1 -1 0
305 2 4.67451723912364 15.60462761573877 5.809672278974617 0 0 -1
25 1 4.167760736120339 18.89235116019882 0.5325910871246551 0 -1 0
311 2 3.6308354075104514 18.419231078192418 3.998126429571333 0 0 0
8 2 1.5445681641927242 15.766307229295114 3.0754847379068497 0 -1 0
432 2 3.0250990332186527 15.449361604318007 4.7847886000361 1 0 1
5 2 4.445538338579371 16.570635090785082 0.9176331971678043 0 -1 1
410 2 1.8978213791926182 17.23767625020745 1.4952327824677945 1 0 0
161 2 3.44529997862511 16.431531927697307 2.6235572925840867 0 0 0
338 2 3.1439926744184286 17.05011384921329 5.6650945286284 0 0 0
324 2 2.748678693513868 14.955038836539561 1.2977758077189847 0 0 -2
92 2 4.460894171307 15.454729232100158 3.2048291536265507 0 -1 0
292 1 3.8508468990530083 16.0323269745126 0.4182974903681882 0 0 0
310 1 2.707922497441275 17.71490824761662 5.034254399509914 0 0 0
322 1 3.9142761684024356 16.129381665922214 3.4615498115528323 0 0 0
328 1 2.680384251847038 17.709203703385633 1.8854530065068424 0 0 0
318 2 4.96033767599161 17.063644598445215 4.459887209537332 0 0 0
26 2 1.4774277708108359 15.523600336809462 5.780224340623029 0 -1 -1
258 2 1.5651194629318876 16.763540615333646 4.001270096384619 1 0 1
3 2 2.172193022178763 18.301185679411823 5.601019813445376 0 -1 -1
316 1 18.852290756218146 16.099933200753902 0.37037070854754006 -1 0 0
308 2 5.032239188210945 17.947875875060873 2.144304878716412 0 0 0
304 1 5.725231969757706 17.551910022494468 1.6823287618678109 0 0 0
354 2 7.704546447538693 1.5875845282447933 3.718414254407043 0 1 0
401 2 8.111484195376638 18.051274520412065 5.159130207906681 0 0 0
379 1 8.694577005286652 14.605879640062472 4.676400214071089 0 0 0
9 2 6.326735090982076 18.05043504186459 4.5931749829707496 0 -1 0
359 2 6.516956364408506 18.342183355900822 0.6040084092166114 0 0 1
417 2 5.936970342997809 15.130606552326109 4.2192802415922515 0 0 -1
2 2 6.100482704329842 16.984167795399426 2.3443315193786733 0 -1 -1
186 2 6.66841770946206 15.275535298091114 1.4373258903545352 0 0 0
335 2 6.6356773730088205 16.750099740218587 5.69834397687441 0 0 0
377 2 9.44575090195852 18.544860542906 0.6507452472435288 0 0 0
334 1 5.619902990784071 17.479350387426692 4.981545515336894 0 0 0
98 2 7.692715516374512 15.518432394445485 3.047758066307968 0 -1 -1
389 2 7.199635890155407 16.45096191717263 4.295007017987372 1 0 -2
63 2 8.47610673703024 17.99035591333073 2.190446847941236 0 -1 0
327 2 8.146790564992099 15.24116528412966 5.184429043070123 0 0 0
395 2 9.497015491286618 15.371322657355083 1.1103796932526602 0 0 0
380 2 9.329798942593133 17.000723118186187 5.016794184737295 0 0 1
368 2 7.934938774517163 16.492772137927048 0.739793851412052 0 0 1
234 2 10.05883285278214 15.399638039072435 4.027412000630876 0 0 0
346 1 6.892974061439564 16.106500045760153 3.350310243922373 0 0 0
364 1 7.2466046388172956 16.077796532875553 6.112649092001567 0 0 -1
358 1 8.702923817784463 17.602356518551616 4.552170383824814 0 0 0
376 1 8.80300009426928 17.305838346472505 1.5801370267829113 0 0 0
246 2 9.295218804170869 16.69842338086701 2.3105083406563542 1 0 -1
407 2 9.622958597497307 18.597301425879046 3.81188320632744 0 0 -1
370 1 10.131065408115873 16.088457407937945 3.451587231989934 0 0 0
74 2 12.51308814021041 18.676315963717123 2.5473043234702 0 -1 -1
127 1 13.126658096166022 1.0576812954769246 3.1734530306725035 0 0 0
340 1 10.180823130180675 15.959044276169926 0.4660927916580597 0 0 0
97 1 12.707396056036627 18.982633099612563 0.4761911688618373 0 -1 0
355 1 11.570186234987764 14.430415823179512 5.02085498651749 0 0 0
12 2 13.451276737882875 16.537220376642757 0.6390680580664901 -1 -1 1
317 2 10.971037879896713 18.276800261059236 5.225281624208469 0 0 -1
425 2 12.871965484042464 18.364126639195852 3.897689623881576 0 0 0
420 2 11.994639713841634 15.183585654862892 4.6012795908114175 0 0 -1
281 2 10.628951488077057 15.248177536335211 5.854035410721233 0 0 -1
83 2 12.5651403584613 15.252056607301895 0.7079861471987282 0 -1 0
242 2 10.982671002183123 14.97843332168276 2.327016515840813 0 0 -1
252 2 10.917250384963213 16.733165012797677 1.093865353255428 0 0 0
66 2 13.29132098868967 16.402126885438946 4.2754232607802045 0 -1 0
81 2 11.07405753039262 16.584936428515867 3.4333470894883846 0 -1 0
309 2 10.861474807750833 18.27229825944292 2.0646637489289343 0 0 1
396 2 13.35193411688941 15.365727978997615 3.089438665997791 0 0 0
352 1 11.459514637630118 17.4645651978742 1.718810132317873 0 0 0
382 1 11.584901681473571 17.66259421942057 4.712777370056987 0 0 0
394 1 12.847266894844728 16.097002057392537 3.4542604071754424 0 0 0
412 1 12.96761134853994 15.86534315567334 6.12773334051956 0 0 -1
431 2 12.322514961485354 18.108079052497104 0.8197794680183903 0 0 2
54 2 12.018578192596378 17.143444415368364 5.379736868072669 0 -1 -1
342 2 14.17461908143847 14.877287829815259 5.15687345040028 0 0 -2
413 2 14.065150105783838 18.10994517824551 2.183946992167252 0 0 1
406 1 14.479912648832132 17.558611450697292 4.851974169329219 0 0 0
414 2 14.639782008868162 16.81162498414939 2.018431638919791 0 0 1
323 2 18.364588708790883 15.734407169357782 1.1481589781341035 -1 0 1
422 2 14.892892825953206 14.443861977921557 1.2001432766684954 0 0 0
312 2 14.897713083881197 17.52456953249117 3.968069197624187 -1 0 0
424 1 14.411348368905525 17.50714704908774 1.5120010113729159 0 0 0
399 2 16.44074553133175 18.585949137467615 2.7313065118472903 0 0 1
298 1 18.823354366381913 16.294969488053887 3.5775226063747985 -1 0 0
233 2 18.273253259919656 18.40045065228609 0.7477069594421268 -1 0 1
86 2 15.437986766347107 14.483824563254881 4.2472417290557924 0 -1 -1
284 2 16.74913676248653 18.52026011274951 5.912690359697942 0 -1 0
121 1 16.17720302368472 19.01341021268221 0.5430898290732242 0 -1 0
403 1 17.224054392190922 14.739959289375108 4.811661800072422 0 0 0
174 2 17.190072184821076 17.51550928930928 3.756226129994957 -1 0 -1
123 2 14.991108152298763 16.977245666515643 5.429452669595561 0 -1 0
221 2 17.326429731659175 16.33350236181047 2.1674049531259705 -1 -1 0
279 2 17.86029403741761 14.998543267346275 4.1189278116428785 0 0 0
330 2 17.76604260701574 17.09132189999483 5.380706051523525 -1 0 -1
287 2 18.255966381829168 17.322684820306435 2.517775054599192 0 0 2
429 2 15.473386394033461 15.185929916494937 2.8034206665879178 0 0 -1
426 2 16.593800143151622 16.336080661273144 1.0111468484772144 0 0 0
183 2 16.258943591301716 15.984728010760609 4.053508014535628 -1 0 0
122 2 16.512446306281213 15.637097436763325 5.62510042352903 0 -1 -1
388 1 15.965528881215583 16.000129239379994 0.3657840660887845 0 0 0
400 1 17.419077215211132 17.399886712400587 1.9201922411227785 0 0 0
418 1 15.485638050348381 16.014744411347003 3.4372985519546777 0 0 0
430 1 17.135017641049565 17.676196148107692 4.773509021692872 0 0 0

Velocities

4 5.438477965677923 -1.147445222042716 -4.129786151270334
13 0.5349663966240381 -3.519143291755122 -9.07510243438611
34 7.706883155936427 7.322007792282639 -4.235874818240784
43 -0.7104559504701349 -2.355595624858508 -10.67856423255098
47 11.728105198957651 31.55977709741876 59.23163137363244
146 6.145868251968505 -15.236242339795272 21.095028571491575
405 53.23838380534414 -45.5869721924507 -41.00289257089857
44 2.247924828204843 -42.231314437877415 -10.004887088716632
152 -24.665719906214534 -55.1867003110971 -34.32145403957481